+ 0 2 3 cbr 1000 ------- 2 2.0 3.1 0 0
- 0 2 3 cbr 1000 ------- 2 2.0 3.1 0 0
+ 0 0 3 tcp 40 ------- 0 0.0 1.0 0 1
- 0 0 3 tcp 40 ------- 0 0.0 1.0 0 1
+ 0 3 1 tcp 40 ------- 1 3.0 1.1 0 2
- 0 3 1 tcp 40 ------- 1 3.0 1.1 0 2
+ 0.008 2 3 cbr 1000 ------- 2 2.0 3.1 1 3
- 0.008 2 3 cbr 1000 ------- 2 2.0 3.1 1 3
+ 0.016 2 3 cbr 1000 ------- 2 2.0 3.1 2 4
- 0.016 2 3 cbr 1000 ------- 2 2.0 3.1 2 4
+ 0.024 2 3 cbr 1000 ------- 2 2.0 3.1 3 5
- 0.024 2 3 cbr 1000 ------- 2 2.0 3.1 3 5
+ 0.032 2 3 cbr 1000 ------- 2 2.0 3.1 4 6
- 0.032 2 3 cbr 1000 ------- 2 2.0 3.1 4 6
+ 0.04 2 3 cbr 1000 ------- 2 2.0 3.1 5 7
- 0.04 2 3 cbr 1000 ------- 2 2.0 3.1 5 7
r 0.04016 0 3 tcp 40 ------- 0 0.0 1.0 0 1
+ 0.04016 3 1 tcp 40 ------- 0 0.0 1.0 0 1
- 0.04016 3 1 tcp 40 ------- 0 0.0 1.0 0 1
r 0.04016 3 1 tcp 40 ------- 1 3.0 1.1 0 2
+ 0.04016 1 3 ack 40 ------- 1 1.1 3.0 0 8
- 0.04016 1 3 ack 40 ------- 1 1.1 3.0 0 8
r 0.044 2 3 cbr 1000 ------- 2 2.0 3.1 0 0
+ 0.048 2 3 cbr 1000 ------- 2 2.0 3.1 6 9
- 0.048 2 3 cbr 1000 ------- 2 2.0 3.1 6 9
r 0.052 2 3 cbr 1000 ------- 2 2.0 3.1 1 3
+ 0.056 2 3 cbr 1000 ------- 2 2.0 3.1 7 10
- 0.056 2 3 cbr 1000 ------- 2 2.0 3.1 7 10
r 0.06 2 3 cbr 1000 ------- 2 2.0 3.1 2 4
+ 0.064 2 3 cbr 1000 ------- 2 2.0 3.1 8 11
- 0.064 2 3 cbr 1000 ------- 2 2.0 3.1 8 11
r 0.068 2 3 cbr 1000 ------- 2 2.0 3.1 3 5
+ 0.072 2 3 cbr 1000 ------- 2 2.0 3.1 9 12
- 0.072 2 3 cbr 1000 ------- 2 2.0 3.1 9 12
r 0.076 2 3 cbr 1000 ------- 2 2.0 3.1 4 6
+ 0.08 2 3 cbr 1000 ------- 2 2.0 3.1 10 13
- 0.08 2 3 cbr 1000 ------- 2 2.0 3.1 10 13
r 0.08032 3 1 tcp 40 ------- 0 0.0 1.0 0 1
+ 0.08032 1 3 ack 40 ------- 0 1.0 0.0 0 14
- 0.08032 1 3 ack 40 ------- 0 1.0 0.0 0 14
r 0.08032 1 3 ack 40 ------- 1 1.1 3.0 0 8
+ 0.08032 3 1 tcp 1040 ------- 1 3.0 1.1 1 15
- 0.08032 3 1 tcp 1040 ------- 1 3.0 1.1 1 15
+ 0.08032 3 1 tcp 1040 ------- 1 3.0 1.1 2 16
r 0.084 2 3 cbr 1000 ------- 2 2.0 3.1 5 7
- 0.08448 3 1 tcp 1040 ------- 1 3.0 1.1 2 16
+ 0.088 2 3 cbr 1000 ------- 2 2.0 3.1 11 17
- 0.088 2 3 cbr 1000 ------- 2 2.0 3.1 11 17
r 0.092 2 3 cbr 1000 ------- 2 2.0 3.1 6 9
+ 0.096 2 3 cbr 1000 ------- 2 2.0 3.1 12 18
- 0.096 2 3 cbr 1000 ------- 2 2.0 3.1 12 18
r 0.1 2 3 cbr 1000 ------- 2 2.0 3.1 7 10
+ 0.104 2 3 cbr 1000 ------- 2 2.0 3.1 13 19
- 0.104 2 3 cbr 1000 ------- 2 2.0 3.1 13 19
r 0.108 2 3 cbr 1000 ------- 2 2.0 3.1 8 11
+ 0.112 2 3 cbr 1000 ------- 2 2.0 3.1 14 20
- 0.112 2 3 cbr 1000 ------- 2 2.0 3.1 14 20
r 0.116 2 3 cbr 1000 ------- 2 2.0 3.1 9 12
+ 0.12 2 3 cbr 1000 ------- 2 2.0 3.1 15 21
- 0.12 2 3 cbr 1000 ------- 2 2.0 3.1 15 21
r 0.12048 1 3 ack 40 ------- 0 1.0 0.0 0 14
+ 0.12048 3 0 ack 40 ------- 0 1.0 0.0 0 14
- 0.12048 3 0 ack 40 ------- 0 1.0 0.0 0 14
r 0.124 2 3 cbr 1000 ------- 2 2.0 3.1 10 13
r 0.12448 3 1 tcp 1040 ------- 1 3.0 1.1 1 15
+ 0.12448 1 3 ack 40 ------- 1 1.1 3.0 1 22
- 0.12448 1 3 ack 40 ------- 1 1.1 3.0 1 22
+ 0.128 2 3 cbr 1000 ------- 2 2.0 3.1 16 23
- 0.128 2 3 cbr 1000 ------- 2 2.0 3.1 16 23
r 0.12864 3 1 tcp 1040 ------- 1 3.0 1.1 2 16
+ 0.12864 1 3 ack 40 ------- 1 1.1 3.0 2 24
- 0.12864 1 3 ack 40 ------- 1 1.1 3.0 2 24
r 0.132 2 3 cbr 1000 ------- 2 2.0 3.1 11 17
+ 0.136 2 3 cbr 1000 ------- 2 2.0 3.1 17 25
- 0.136 2 3 cbr 1000 ------- 2 2.0 3.1 17 25
r 0.14 2 3 cbr 1000 ------- 2 2.0 3.1 12 18
+ 0.144 2 3 cbr 1000 ------- 2 2.0 3.1 18 26
- 0.144 2 3 cbr 1000 ------- 2 2.0 3.1 18 26
r 0.148 2 3 cbr 1000 ------- 2 2.0 3.1 13 19
+ 0.152 2 3 cbr 1000 ------- 2 2.0 3.1 19 27
- 0.152 2 3 cbr 1000 ------- 2 2.0 3.1 19 27
r 0.156 2 3 cbr 1000 ------- 2 2.0 3.1 14 20
+ 0.16 2 3 cbr 1000 ------- 2 2.0 3.1 20 28
- 0.16 2 3 cbr 1000 ------- 2 2.0 3.1 20 28
r 0.16064 3 0 ack 40 ------- 0 1.0 0.0 0 14
+ 0.16064 0 3 tcp 1040 ------- 0 0.0 1.0 1 29
- 0.16064 0 3 tcp 1040 ------- 0 0.0 1.0 1 29
+ 0.16064 0 3 tcp 1040 ------- 0 0.0 1.0 2 30
r 0.164 2 3 cbr 1000 ------- 2 2.0 3.1 15 21
r 0.16464 1 3 ack 40 ------- 1 1.1 3.0 1 22
+ 0.16464 3 1 tcp 1040 ------- 1 3.0 1.1 3 31
- 0.16464 3 1 tcp 1040 ------- 1 3.0 1.1 3 31
+ 0.16464 3 1 tcp 1040 ------- 1 3.0 1.1 4 32
- 0.1648 0 3 tcp 1040 ------- 0 0.0 1.0 2 30
+ 0.168 2 3 cbr 1000 ------- 2 2.0 3.1 21 33
- 0.168 2 3 cbr 1000 ------- 2 2.0 3.1 21 33
r 0.1688 1 3 ack 40 ------- 1 1.1 3.0 2 24
+ 0.1688 3 1 tcp 1040 ------- 1 3.0 1.1 5 34
+ 0.1688 3 1 tcp 1040 ------- 1 3.0 1.1 6 35
- 0.1688 3 1 tcp 1040 ------- 1 3.0 1.1 4 32
r 0.172 2 3 cbr 1000 ------- 2 2.0 3.1 16 23
- 0.17296 3 1 tcp 1040 ------- 1 3.0 1.1 5 34
+ 0.176 2 3 cbr 1000 ------- 2 2.0 3.1 22 36
- 0.176 2 3 cbr 1000 ------- 2 2.0 3.1 22 36
- 0.17712 3 1 tcp 1040 ------- 1 3.0 1.1 6 35
r 0.18 2 3 cbr 1000 ------- 2 2.0 3.1 17 25
+ 0.184 2 3 cbr 1000 ------- 2 2.0 3.1 23 37
- 0.184 2 3 cbr 1000 ------- 2 2.0 3.1 23 37
r 0.188 2 3 cbr 1000 ------- 2 2.0 3.1 18 26
+ 0.192 2 3 cbr 1000 ------- 2 2.0 3.1 24 38
- 0.192 2 3 cbr 1000 ------- 2 2.0 3.1 24 38
r 0.196 2 3 cbr 1000 ------- 2 2.0 3.1 19 27
+ 0.2 2 3 cbr 1000 ------- 2 2.0 3.1 25 39
- 0.2 2 3 cbr 1000 ------- 2 2.0 3.1 25 39
r 0.204 2 3 cbr 1000 ------- 2 2.0 3.1 20 28
r 0.2048 0 3 tcp 1040 ------- 0 0.0 1.0 1 29
+ 0.2048 3 1 tcp 1040 ------- 0 0.0 1.0 1 29
- 0.2048 3 1 tcp 1040 ------- 0 0.0 1.0 1 29
+ 0.208 2 3 cbr 1000 ------- 2 2.0 3.1 26 40
- 0.208 2 3 cbr 1000 ------- 2 2.0 3.1 26 40
r 0.2088 3 1 tcp 1040 ------- 1 3.0 1.1 3 31
+ 0.2088 1 3 ack 40 ------- 1 1.1 3.0 3 41
- 0.2088 1 3 ack 40 ------- 1 1.1 3.0 3 41
r 0.20896 0 3 tcp 1040 ------- 0 0.0 1.0 2 30
+ 0.20896 3 1 tcp 1040 ------- 0 0.0 1.0 2 30
- 0.20896 3 1 tcp 1040 ------- 0 0.0 1.0 2 30
r 0.212 2 3 cbr 1000 ------- 2 2.0 3.1 21 33
r 0.21296 3 1 tcp 1040 ------- 1 3.0 1.1 4 32
+ 0.21296 1 3 ack 40 ------- 1 1.1 3.0 4 42
- 0.21296 1 3 ack 40 ------- 1 1.1 3.0 4 42
+ 0.216 2 3 cbr 1000 ------- 2 2.0 3.1 27 43
- 0.216 2 3 cbr 1000 ------- 2 2.0 3.1 27 43
r 0.21712 3 1 tcp 1040 ------- 1 3.0 1.1 5 34
+ 0.21712 1 3 ack 40 ------- 1 1.1 3.0 5 44
- 0.21712 1 3 ack 40 ------- 1 1.1 3.0 5 44
r 0.22 2 3 cbr 1000 ------- 2 2.0 3.1 22 36
r 0.22128 3 1 tcp 1040 ------- 1 3.0 1.1 6 35
+ 0.22128 1 3 ack 40 ------- 1 1.1 3.0 6 45
- 0.22128 1 3 ack 40 ------- 1 1.1 3.0 6 45
+ 0.224 2 3 cbr 1000 ------- 2 2.0 3.1 28 46
- 0.224 2 3 cbr 1000 ------- 2 2.0 3.1 28 46
r 0.228 2 3 cbr 1000 ------- 2 2.0 3.1 23 37
+ 0.232 2 3 cbr 1000 ------- 2 2.0 3.1 29 47
- 0.232 2 3 cbr 1000 ------- 2 2.0 3.1 29 47
r 0.236 2 3 cbr 1000 ------- 2 2.0 3.1 24 38
+ 0.24 2 3 cbr 1000 ------- 2 2.0 3.1 30 48
- 0.24 2 3 cbr 1000 ------- 2 2.0 3.1 30 48
r 0.244 2 3 cbr 1000 ------- 2 2.0 3.1 25 39
+ 0.248 2 3 cbr 1000 ------- 2 2.0 3.1 31 49
- 0.248 2 3 cbr 1000 ------- 2 2.0 3.1 31 49
r 0.24896 3 1 tcp 1040 ------- 0 0.0 1.0 1 29
+ 0.24896 1 3 ack 40 ------- 0 1.0 0.0 1 50
- 0.24896 1 3 ack 40 ------- 0 1.0 0.0 1 50
r 0.24896 1 3 ack 40 ------- 1 1.1 3.0 3 41
+ 0.24896 3 1 tcp 1040 ------- 1 3.0 1.1 7 51
- 0.24896 3 1 tcp 1040 ------- 1 3.0 1.1 7 51
+ 0.24896 3 1 tcp 1040 ------- 1 3.0 1.1 8 52
r 0.252 2 3 cbr 1000 ------- 2 2.0 3.1 26 40
r 0.25312 3 1 tcp 1040 ------- 0 0.0 1.0 2 30
+ 0.25312 1 3 ack 40 ------- 0 1.0 0.0 2 53
- 0.25312 1 3 ack 40 ------- 0 1.0 0.0 2 53
r 0.25312 1 3 ack 40 ------- 1 1.1 3.0 4 42
+ 0.25312 3 1 tcp 1040 ------- 1 3.0 1.1 9 54
+ 0.25312 3 1 tcp 1040 ------- 1 3.0 1.1 10 55
- 0.25312 3 1 tcp 1040 ------- 1 3.0 1.1 8 52
+ 0.256 2 3 cbr 1000 ------- 2 2.0 3.1 32 56
- 0.256 2 3 cbr 1000 ------- 2 2.0 3.1 32 56
r 0.25728 1 3 ack 40 ------- 1 1.1 3.0 5 44
+ 0.25728 3 1 tcp 1040 ------- 1 3.0 1.1 11 57
+ 0.25728 3 1 tcp 1040 ------- 1 3.0 1.1 12 58
- 0.25728 3 1 tcp 1040 ------- 1 3.0 1.1 9 54
r 0.26 2 3 cbr 1000 ------- 2 2.0 3.1 27 43
r 0.26144 1 3 ack 40 ------- 1 1.1 3.0 6 45
+ 0.26144 3 1 tcp 1040 ------- 1 3.0 1.1 13 59
+ 0.26144 3 1 tcp 1040 ------- 1 3.0 1.1 14 60
- 0.26144 3 1 tcp 1040 ------- 1 3.0 1.1 10 55
+ 0.264 2 3 cbr 1000 ------- 2 2.0 3.1 33 61
- 0.264 2 3 cbr 1000 ------- 2 2.0 3.1 33 61
- 0.2656 3 1 tcp 1040 ------- 1 3.0 1.1 11 57
r 0.268 2 3 cbr 1000 ------- 2 2.0 3.1 28 46
- 0.26976 3 1 tcp 1040 ------- 1 3.0 1.1 12 58
+ 0.272 2 3 cbr 1000 ------- 2 2.0 3.1 34 62
- 0.272 2 3 cbr 1000 ------- 2 2.0 3.1 34 62
- 0.27392 3 1 tcp 1040 ------- 1 3.0 1.1 13 59
r 0.276 2 3 cbr 1000 ------- 2 2.0 3.1 29 47
- 0.27808 3 1 tcp 1040 ------- 1 3.0 1.1 14 60
+ 0.28 2 3 cbr 1000 ------- 2 2.0 3.1 35 63
- 0.28 2 3 cbr 1000 ------- 2 2.0 3.1 35 63
r 0.284 2 3 cbr 1000 ------- 2 2.0 3.1 30 48
+ 0.288 2 3 cbr 1000 ------- 2 2.0 3.1 36 64
- 0.288 2 3 cbr 1000 ------- 2 2.0 3.1 36 64
r 0.28912 1 3 ack 40 ------- 0 1.0 0.0 1 50
+ 0.28912 3 0 ack 40 ------- 0 1.0 0.0 1 50
- 0.28912 3 0 ack 40 ------- 0 1.0 0.0 1 50
r 0.292 2 3 cbr 1000 ------- 2 2.0 3.1 31 49
r 0.29312 3 1 tcp 1040 ------- 1 3.0 1.1 7 51
+ 0.29312 1 3 ack 40 ------- 1 1.1 3.0 7 65
- 0.29312 1 3 ack 40 ------- 1 1.1 3.0 7 65
r 0.29328 1 3 ack 40 ------- 0 1.0 0.0 2 53
+ 0.29328 3 0 ack 40 ------- 0 1.0 0.0 2 53
- 0.29328 3 0 ack 40 ------- 0 1.0 0.0 2 53
+ 0.296 2 3 cbr 1000 ------- 2 2.0 3.1 37 66
- 0.296 2 3 cbr 1000 ------- 2 2.0 3.1 37 66
r 0.29728 3 1 tcp 1040 ------- 1 3.0 1.1 8 52
+ 0.29728 1 3 ack 40 ------- 1 1.1 3.0 8 67
- 0.29728 1 3 ack 40 ------- 1 1.1 3.0 8 67
r 0.3 2 3 cbr 1000 ------- 2 2.0 3.1 32 56
r 0.30144 3 1 tcp 1040 ------- 1 3.0 1.1 9 54
+ 0.30144 1 3 ack 40 ------- 1 1.1 3.0 9 68
- 0.30144 1 3 ack 40 ------- 1 1.1 3.0 9 68
+ 0.304 2 3 cbr 1000 ------- 2 2.0 3.1 38 69
- 0.304 2 3 cbr 1000 ------- 2 2.0 3.1 38 69
r 0.3056 3 1 tcp 1040 ------- 1 3.0 1.1 10 55
+ 0.3056 1 3 ack 40 ------- 1 1.1 3.0 10 70
- 0.3056 1 3 ack 40 ------- 1 1.1 3.0 10 70
r 0.308 2 3 cbr 1000 ------- 2 2.0 3.1 33 61
r 0.30976 3 1 tcp 1040 ------- 1 3.0 1.1 11 57
+ 0.30976 1 3 ack 40 ------- 1 1.1 3.0 11 71
- 0.30976 1 3 ack 40 ------- 1 1.1 3.0 11 71
+ 0.312 2 3 cbr 1000 ------- 2 2.0 3.1 39 72
- 0.312 2 3 cbr 1000 ------- 2 2.0 3.1 39 72
r 0.31392 3 1 tcp 1040 ------- 1 3.0 1.1 12 58
+ 0.31392 1 3 ack 40 ------- 1 1.1 3.0 12 73
- 0.31392 1 3 ack 40 ------- 1 1.1 3.0 12 73
r 0.316 2 3 cbr 1000 ------- 2 2.0 3.1 34 62
r 0.31808 3 1 tcp 1040 ------- 1 3.0 1.1 13 59
+ 0.31808 1 3 ack 40 ------- 1 1.1 3.0 13 74
- 0.31808 1 3 ack 40 ------- 1 1.1 3.0 13 74
+ 0.32 2 3 cbr 1000 ------- 2 2.0 3.1 40 75
- 0.32 2 3 cbr 1000 ------- 2 2.0 3.1 40 75
r 0.32224 3 1 tcp 1040 ------- 1 3.0 1.1 14 60
+ 0.32224 1 3 ack 40 ------- 1 1.1 3.0 14 76
- 0.32224 1 3 ack 40 ------- 1 1.1 3.0 14 76
r 0.324 2 3 cbr 1000 ------- 2 2.0 3.1 35 63
+ 0.328 2 3 cbr 1000 ------- 2 2.0 3.1 41 77
- 0.328 2 3 cbr 1000 ------- 2 2.0 3.1 41 77
r 0.32928 3 0 ack 40 ------- 0 1.0 0.0 1 50
+ 0.32928 0 3 tcp 1040 ------- 0 0.0 1.0 3 78
- 0.32928 0 3 tcp 1040 ------- 0 0.0 1.0 3 78
+ 0.32928 0 3 tcp 1040 ------- 0 0.0 1.0 4 79
r 0.332 2 3 cbr 1000 ------- 2 2.0 3.1 36 64
r 0.33328 1 3 ack 40 ------- 1 1.1 3.0 7 65
+ 0.33328 3 1 tcp 1040 ------- 1 3.0 1.1 15 80
- 0.33328 3 1 tcp 1040 ------- 1 3.0 1.1 15 80
+ 0.33328 3 1 tcp 1040 ------- 1 3.0 1.1 16 81
r 0.33344 3 0 ack 40 ------- 0 1.0 0.0 2 53
+ 0.33344 0 3 tcp 1040 ------- 0 0.0 1.0 5 82
+ 0.33344 0 3 tcp 1040 ------- 0 0.0 1.0 6 83
- 0.33344 0 3 tcp 1040 ------- 0 0.0 1.0 4 79
+ 0.336 2 3 cbr 1000 ------- 2 2.0 3.1 42 84
- 0.336 2 3 cbr 1000 ------- 2 2.0 3.1 42 84
r 0.33744 1 3 ack 40 ------- 1 1.1 3.0 8 67
+ 0.33744 3 1 tcp 1040 ------- 1 3.0 1.1 17 85
+ 0.33744 3 1 tcp 1040 ------- 1 3.0 1.1 18 86
- 0.33744 3 1 tcp 1040 ------- 1 3.0 1.1 16 81
- 0.3376 0 3 tcp 1040 ------- 0 0.0 1.0 5 82
r 0.34 2 3 cbr 1000 ------- 2 2.0 3.1 37 66
r 0.3416 1 3 ack 40 ------- 1 1.1 3.0 9 68
+ 0.3416 3 1 tcp 1040 ------- 1 3.0 1.1 19 87
+ 0.3416 3 1 tcp 1040 ------- 1 3.0 1.1 20 88
- 0.3416 3 1 tcp 1040 ------- 1 3.0 1.1 17 85
- 0.34176 0 3 tcp 1040 ------- 0 0.0 1.0 6 83
+ 0.344 2 3 cbr 1000 ------- 2 2.0 3.1 43 89
- 0.344 2 3 cbr 1000 ------- 2 2.0 3.1 43 89
r 0.34576 1 3 ack 40 ------- 1 1.1 3.0 10 70
+ 0.34576 3 1 tcp 1040 ------- 1 3.0 1.1 21 90
+ 0.34576 3 1 tcp 1040 ------- 1 3.0 1.1 22 91
- 0.34576 3 1 tcp 1040 ------- 1 3.0 1.1 18 86
r 0.348 2 3 cbr 1000 ------- 2 2.0 3.1 38 69
r 0.34992 1 3 ack 40 ------- 1 1.1 3.0 11 71
+ 0.34992 3 1 tcp 1040 ------- 1 3.0 1.1 23 92
+ 0.34992 3 1 tcp 1040 ------- 1 3.0 1.1 24 93
- 0.34992 3 1 tcp 1040 ------- 1 3.0 1.1 19 87
+ 0.352 2 3 cbr 1000 ------- 2 2.0 3.1 44 94
- 0.352 2 3 cbr 1000 ------- 2 2.0 3.1 44 94
r 0.35408 1 3 ack 40 ------- 1 1.1 3.0 12 73
+ 0.35408 3 1 tcp 1040 ------- 1 3.0 1.1 25 95
+ 0.35408 3 1 tcp 1040 ------- 1 3.0 1.1 26 96
- 0.35408 3 1 tcp 1040 ------- 1 3.0 1.1 20 88
r 0.356 2 3 cbr 1000 ------- 2 2.0 3.1 39 72
r 0.35824 1 3 ack 40 ------- 1 1.1 3.0 13 74
+ 0.35824 3 1 tcp 1040 ------- 1 3.0 1.1 27 97
+ 0.35824 3 1 tcp 1040 ------- 1 3.0 1.1 28 98
- 0.35824 3 1 tcp 1040 ------- 1 3.0 1.1 21 90
+ 0.36 2 3 cbr 1000 ------- 2 2.0 3.1 45 99
- 0.36 2 3 cbr 1000 ------- 2 2.0 3.1 45 99
r 0.3624 1 3 ack 40 ------- 1 1.1 3.0 14 76
+ 0.3624 3 1 tcp 1040 ------- 1 3.0 1.1 29 100
+ 0.3624 3 1 tcp 1040 ------- 1 3.0 1.1 30 101
- 0.3624 3 1 tcp 1040 ------- 1 3.0 1.1 22 91
r 0.364 2 3 cbr 1000 ------- 2 2.0 3.1 40 75
- 0.36656 3 1 tcp 1040 ------- 1 3.0 1.1 23 92
+ 0.368 2 3 cbr 1000 ------- 2 2.0 3.1 46 102
- 0.368 2 3 cbr 1000 ------- 2 2.0 3.1 46 102
- 0.37072 3 1 tcp 1040 ------- 1 3.0 1.1 24 93
r 0.372 2 3 cbr 1000 ------- 2 2.0 3.1 41 77
r 0.37344 0 3 tcp 1040 ------- 0 0.0 1.0 3 78
+ 0.37344 3 1 tcp 1040 ------- 0 0.0 1.0 3 78
- 0.37488 3 1 tcp 1040 ------- 1 3.0 1.1 25 95
+ 0.376 2 3 cbr 1000 ------- 2 2.0 3.1 47 103
- 0.376 2 3 cbr 1000 ------- 2 2.0 3.1 47 103
r 0.37744 3 1 tcp 1040 ------- 1 3.0 1.1 15 80
+ 0.37744 1 3 ack 40 ------- 1 1.1 3.0 15 104
- 0.37744 1 3 ack 40 ------- 1 1.1 3.0 15 104
r 0.3776 0 3 tcp 1040 ------- 0 0.0 1.0 4 79
+ 0.3776 3 1 tcp 1040 ------- 0 0.0 1.0 4 79
- 0.37904 3 1 tcp 1040 ------- 1 3.0 1.1 26 96
r 0.38 2 3 cbr 1000 ------- 2 2.0 3.1 42 84
r 0.3816 3 1 tcp 1040 ------- 1 3.0 1.1 16 81
+ 0.3816 1 3 ack 40 ------- 1 1.1 3.0 16 105
- 0.3816 1 3 ack 40 ------- 1 1.1 3.0 16 105
r 0.38176 0 3 tcp 1040 ------- 0 0.0 1.0 5 82
+ 0.38176 3 1 tcp 1040 ------- 0 0.0 1.0 5 82
- 0.3832 3 1 tcp 1040 ------- 1 3.0 1.1 27 97
+ 0.384 2 3 cbr 1000 ------- 2 2.0 3.1 48 106
- 0.384 2 3 cbr 1000 ------- 2 2.0 3.1 48 106
r 0.38576 3 1 tcp 1040 ------- 1 3.0 1.1 17 85
+ 0.38576 1 3 ack 40 ------- 1 1.1 3.0 17 107
- 0.38576 1 3 ack 40 ------- 1 1.1 3.0 17 107
r 0.38592 0 3 tcp 1040 ------- 0 0.0 1.0 6 83
+ 0.38592 3 1 tcp 1040 ------- 0 0.0 1.0 6 83
- 0.38736 3 1 tcp 1040 ------- 1 3.0 1.1 28 98
r 0.388 2 3 cbr 1000 ------- 2 2.0 3.1 43 89
r 0.38992 3 1 tcp 1040 ------- 1 3.0 1.1 18 86
+ 0.38992 1 3 ack 40 ------- 1 1.1 3.0 18 108
- 0.38992 1 3 ack 40 ------- 1 1.1 3.0 18 108
- 0.39152 3 1 tcp 1040 ------- 1 3.0 1.1 29 100
+ 0.392 2 3 cbr 1000 ------- 2 2.0 3.1 49 109
- 0.392 2 3 cbr 1000 ------- 2 2.0 3.1 49 109
r 0.39408 3 1 tcp 1040 ------- 1 3.0 1.1 19 87
+ 0.39408 1 3 ack 40 ------- 1 1.1 3.0 19 110
- 0.39408 1 3 ack 40 ------- 1 1.1 3.0 19 110
- 0.39568 3 1 tcp 1040 ------- 1 3.0 1.1 30 101
r 0.396 2 3 cbr 1000 ------- 2 2.0 3.1 44 94
r 0.39824 3 1 tcp 1040 ------- 1 3.0 1.1 20 88
+ 0.39824 1 3 ack 40 ------- 1 1.1 3.0 20 111
- 0.39824 1 3 ack 40 ------- 1 1.1 3.0 20 111
- 0.39984 3 1 tcp 1040 ------- 0 0.0 1.0 3 78
+ 0.4 2 3 cbr 1000 ------- 2 2.0 3.1 50 112
- 0.4 2 3 cbr 1000 ------- 2 2.0 3.1 50 112
r 0.4024 3 1 tcp 1040 ------- 1 3.0 1.1 21 90
+ 0.4024 1 3 ack 40 ------- 1 1.1 3.0 21 113
- 0.4024 1 3 ack 40 ------- 1 1.1 3.0 21 113
- 0.404 3 1 tcp 1040 ------- 0 0.0 1.0 4 79
r 0.404 2 3 cbr 1000 ------- 2 2.0 3.1 45 99
r 0.40656 3 1 tcp 1040 ------- 1 3.0 1.1 22 91
+ 0.40656 1 3 ack 40 ------- 1 1.1 3.0 22 114
- 0.40656 1 3 ack 40 ------- 1 1.1 3.0 22 114
+ 0.408 2 3 cbr 1000 ------- 2 2.0 3.1 51 115
- 0.408 2 3 cbr 1000 ------- 2 2.0 3.1 51 115
- 0.40816 3 1 tcp 1040 ------- 0 0.0 1.0 5 82
r 0.41072 3 1 tcp 1040 ------- 1 3.0 1.1 23 92
+ 0.41072 1 3 ack 40 ------- 1 1.1 3.0 23 116
- 0.41072 1 3 ack 40 ------- 1 1.1 3.0 23 116
r 0.412 2 3 cbr 1000 ------- 2 2.0 3.1 46 102
- 0.41232 3 1 tcp 1040 ------- 0 0.0 1.0 6 83
r 0.41488 3 1 tcp 1040 ------- 1 3.0 1.1 24 93
+ 0.41488 1 3 ack 40 ------- 1 1.1 3.0 24 117
- 0.41488 1 3 ack 40 ------- 1 1.1 3.0 24 117
+ 0.416 2 3 cbr 1000 ------- 2 2.0 3.1 52 118
- 0.416 2 3 cbr 1000 ------- 2 2.0 3.1 52 118
r 0.4176 1 3 ack 40 ------- 1 1.1 3.0 15 104
+ 0.4176 3 1 tcp 1040 ------- 1 3.0 1.1 31 119
- 0.4176 3 1 tcp 1040 ------- 1 3.0 1.1 31 119
+ 0.4176 3 1 tcp 1040 ------- 1 3.0 1.1 32 120
r 0.41904 3 1 tcp 1040 ------- 1 3.0 1.1 25 95
+ 0.41904 1 3 ack 40 ------- 1 1.1 3.0 25 121
- 0.41904 1 3 ack 40 ------- 1 1.1 3.0 25 121
r 0.42 2 3 cbr 1000 ------- 2 2.0 3.1 47 103
- 0.42176 3 1 tcp 1040 ------- 1 3.0 1.1 32 120
r 0.42176 1 3 ack 40 ------- 1 1.1 3.0 16 105
+ 0.42176 3 1 tcp 1040 ------- 1 3.0 1.1 33 122
+ 0.42176 3 1 tcp 1040 ------- 1 3.0 1.1 34 123
r 0.4232 3 1 tcp 1040 ------- 1 3.0 1.1 26 96
+ 0.4232 1 3 ack 40 ------- 1 1.1 3.0 26 124
- 0.4232 1 3 ack 40 ------- 1 1.1 3.0 26 124
+ 0.424 2 3 cbr 1000 ------- 2 2.0 3.1 53 125
- 0.424 2 3 cbr 1000 ------- 2 2.0 3.1 53 125
r 0.42592 1 3 ack 40 ------- 1 1.1 3.0 17 107
+ 0.42592 3 1 tcp 1040 ------- 1 3.0 1.1 35 126
+ 0.42592 3 1 tcp 1040 ------- 1 3.0 1.1 36 127
- 0.42592 3 1 tcp 1040 ------- 1 3.0 1.1 33 122
r 0.42736 3 1 tcp 1040 ------- 1 3.0 1.1 27 97
+ 0.42736 1 3 ack 40 ------- 1 1.1 3.0 27 128
- 0.42736 1 3 ack 40 ------- 1 1.1 3.0 27 128
r 0.428 2 3 cbr 1000 ------- 2 2.0 3.1 48 106
- 0.43008 3 1 tcp 1040 ------- 1 3.0 1.1 34 123
r 0.43008 1 3 ack 40 ------- 1 1.1 3.0 18 108
+ 0.43008 3 1 tcp 1040 ------- 1 3.0 1.1 37 129
+ 0.43008 3 1 tcp 1040 ------- 1 3.0 1.1 38 130
r 0.43152 3 1 tcp 1040 ------- 1 3.0 1.1 28 98
+ 0.43152 1 3 ack 40 ------- 1 1.1 3.0 28 131
- 0.43152 1 3 ack 40 ------- 1 1.1 3.0 28 131
+ 0.432 2 3 cbr 1000 ------- 2 2.0 3.1 54 132
- 0.432 2 3 cbr 1000 ------- 2 2.0 3.1 54 132
r 0.43424 1 3 ack 40 ------- 1 1.1 3.0 19 110
+ 0.43424 3 1 tcp 1040 ------- 1 3.0 1.1 39 133
- 0.43424 3 1 tcp 1040 ------- 1 3.0 1.1 35 126
r 0.43568 3 1 tcp 1040 ------- 1 3.0 1.1 29 100
+ 0.43568 1 3 ack 40 ------- 1 1.1 3.0 29 134
- 0.43568 1 3 ack 40 ------- 1 1.1 3.0 29 134
r 0.436 2 3 cbr 1000 ------- 2 2.0 3.1 49 109
- 0.4384 3 1 tcp 1040 ------- 1 3.0 1.1 36 127
r 0.4384 1 3 ack 40 ------- 1 1.1 3.0 20 111
+ 0.4384 3 1 tcp 1040 ------- 1 3.0 1.1 40 135
r 0.43984 3 1 tcp 1040 ------- 1 3.0 1.1 30 101
+ 0.43984 1 3 ack 40 ------- 1 1.1 3.0 30 136
- 0.43984 1 3 ack 40 ------- 1 1.1 3.0 30 136
+ 0.44 2 3 cbr 1000 ------- 2 2.0 3.1 55 137
- 0.44 2 3 cbr 1000 ------- 2 2.0 3.1 55 137
r 0.44256 1 3 ack 40 ------- 1 1.1 3.0 21 113
+ 0.44256 3 1 tcp 1040 ------- 1 3.0 1.1 41 138
- 0.44256 3 1 tcp 1040 ------- 1 3.0 1.1 37 129
r 0.444 3 1 tcp 1040 ------- 0 0.0 1.0 3 78
+ 0.444 1 3 ack 40 ------- 0 1.0 0.0 3 139
- 0.444 1 3 ack 40 ------- 0 1.0 0.0 3 139
r 0.444 2 3 cbr 1000 ------- 2 2.0 3.1 50 112
- 0.44672 3 1 tcp 1040 ------- 1 3.0 1.1 38 130
r 0.44672 1 3 ack 40 ------- 1 1.1 3.0 22 114
+ 0.44672 3 1 tcp 1040 ------- 1 3.0 1.1 42 140
+ 0.448 2 3 cbr 1000 ------- 2 2.0 3.1 56 141
- 0.448 2 3 cbr 1000 ------- 2 2.0 3.1 56 141
r 0.44816 3 1 tcp 1040 ------- 0 0.0 1.0 4 79
+ 0.44816 1 3 ack 40 ------- 0 1.0 0.0 4 142
- 0.44816 1 3 ack 40 ------- 0 1.0 0.0 4 142
r 0.45088 1 3 ack 40 ------- 1 1.1 3.0 23 116
+ 0.45088 3 1 tcp 1040 ------- 1 3.0 1.1 43 143
- 0.45088 3 1 tcp 1040 ------- 1 3.0 1.1 39 133
r 0.452 2 3 cbr 1000 ------- 2 2.0 3.1 51 115
r 0.45232 3 1 tcp 1040 ------- 0 0.0 1.0 5 82
+ 0.45232 1 3 ack 40 ------- 0 1.0 0.0 5 144
- 0.45232 1 3 ack 40 ------- 0 1.0 0.0 5 144
- 0.45504 3 1 tcp 1040 ------- 1 3.0 1.1 40 135
r 0.45504 1 3 ack 40 ------- 1 1.1 3.0 24 117
+ 0.45504 3 1 tcp 1040 ------- 1 3.0 1.1 44 145
+ 0.456 2 3 cbr 1000 ------- 2 2.0 3.1 57 146
- 0.456 2 3 cbr 1000 ------- 2 2.0 3.1 57 146
r 0.45648 3 1 tcp 1040 ------- 0 0.0 1.0 6 83
+ 0.45648 1 3 ack 40 ------- 0 1.0 0.0 6 147
- 0.45648 1 3 ack 40 ------- 0 1.0 0.0 6 147
r 0.4592 1 3 ack 40 ------- 1 1.1 3.0 25 121
+ 0.4592 3 1 tcp 1040 ------- 1 3.0 1.1 45 148
- 0.4592 3 1 tcp 1040 ------- 1 3.0 1.1 41 138
r 0.46 2 3 cbr 1000 ------- 2 2.0 3.1 52 118
r 0.46176 3 1 tcp 1040 ------- 1 3.0 1.1 31 119
+ 0.46176 1 3 ack 40 ------- 1 1.1 3.0 31 149
- 0.46176 1 3 ack 40 ------- 1 1.1 3.0 31 149
- 0.46336 3 1 tcp 1040 ------- 1 3.0 1.1 42 140
r 0.46336 1 3 ack 40 ------- 1 1.1 3.0 26 124
+ 0.46336 3 1 tcp 1040 ------- 1 3.0 1.1 46 150
+ 0.464 2 3 cbr 1000 ------- 2 2.0 3.1 58 151
- 0.464 2 3 cbr 1000 ------- 2 2.0 3.1 58 151
r 0.46592 3 1 tcp 1040 ------- 1 3.0 1.1 32 120
+ 0.46592 1 3 ack 40 ------- 1 1.1 3.0 32 152
- 0.46592 1 3 ack 40 ------- 1 1.1 3.0 32 152
r 0.46752 1 3 ack 40 ------- 1 1.1 3.0 27 128
+ 0.46752 3 1 tcp 1040 ------- 1 3.0 1.1 47 153
- 0.46752 3 1 tcp 1040 ------- 1 3.0 1.1 43 143
r 0.468 2 3 cbr 1000 ------- 2 2.0 3.1 53 125
r 0.47008 3 1 tcp 1040 ------- 1 3.0 1.1 33 122
+ 0.47008 1 3 ack 40 ------- 1 1.1 3.0 33 154
- 0.47008 1 3 ack 40 ------- 1 1.1 3.0 33 154
- 0.47168 3 1 tcp 1040 ------- 1 3.0 1.1 44 145
r 0.47168 1 3 ack 40 ------- 1 1.1 3.0 28 131
+ 0.47168 3 1 tcp 1040 ------- 1 3.0 1.1 48 155
+ 0.472 2 3 cbr 1000 ------- 2 2.0 3.1 59 156
- 0.472 2 3 cbr 1000 ------- 2 2.0 3.1 59 156
r 0.47424 3 1 tcp 1040 ------- 1 3.0 1.1 34 123
+ 0.47424 1 3 ack 40 ------- 1 1.1 3.0 34 157
- 0.47424 1 3 ack 40 ------- 1 1.1 3.0 34 157
r 0.47584 1 3 ack 40 ------- 1 1.1 3.0 29 134
+ 0.47584 3 1 tcp 1040 ------- 1 3.0 1.1 49 158
- 0.47584 3 1 tcp 1040 ------- 1 3.0 1.1 45 148
r 0.476 2 3 cbr 1000 ------- 2 2.0 3.1 54 132
r 0.4784 3 1 tcp 1040 ------- 1 3.0 1.1 35 126
+ 0.4784 1 3 ack 40 ------- 1 1.1 3.0 35 159
- 0.4784 1 3 ack 40 ------- 1 1.1 3.0 35 159
- 0.48 3 1 tcp 1040 ------- 1 3.0 1.1 46 150
r 0.48 1 3 ack 40 ------- 1 1.1 3.0 30 136
+ 0.48 3 1 tcp 1040 ------- 1 3.0 1.1 50 160
+ 0.48 2 3 cbr 1000 ------- 2 2.0 3.1 60 161
- 0.48 2 3 cbr 1000 ------- 2 2.0 3.1 60 161
r 0.48256 3 1 tcp 1040 ------- 1 3.0 1.1 36 127
+ 0.48256 1 3 ack 40 ------- 1 1.1 3.0 36 162
- 0.48256 1 3 ack 40 ------- 1 1.1 3.0 36 162
r 0.484 2 3 cbr 1000 ------- 2 2.0 3.1 55 137
r 0.48416 1 3 ack 40 ------- 0 1.0 0.0 3 139
+ 0.48416 3 0 ack 40 ------- 0 1.0 0.0 3 139
- 0.48416 3 0 ack 40 ------- 0 1.0 0.0 3 139
- 0.48416 3 1 tcp 1040 ------- 1 3.0 1.1 47 153
r 0.48672 3 1 tcp 1040 ------- 1 3.0 1.1 37 129
+ 0.48672 1 3 ack 40 ------- 1 1.1 3.0 37 163
- 0.48672 1 3 ack 40 ------- 1 1.1 3.0 37 163
+ 0.488 2 3 cbr 1000 ------- 2 2.0 3.1 61 164
- 0.488 2 3 cbr 1000 ------- 2 2.0 3.1 61 164
- 0.48832 3 1 tcp 1040 ------- 1 3.0 1.1 48 155
r 0.48832 1 3 ack 40 ------- 0 1.0 0.0 4 142
+ 0.48832 3 0 ack 40 ------- 0 1.0 0.0 4 142
- 0.48832 3 0 ack 40 ------- 0 1.0 0.0 4 142
r 0.49088 3 1 tcp 1040 ------- 1 3.0 1.1 38 130
+ 0.49088 1 3 ack 40 ------- 1 1.1 3.0 38 165
- 0.49088 1 3 ack 40 ------- 1 1.1 3.0 38 165
r 0.492 2 3 cbr 1000 ------- 2 2.0 3.1 56 141
r 0.49248 1 3 ack 40 ------- 0 1.0 0.0 5 144
+ 0.49248 3 0 ack 40 ------- 0 1.0 0.0 5 144
- 0.49248 3 0 ack 40 ------- 0 1.0 0.0 5 144
- 0.49248 3 1 tcp 1040 ------- 1 3.0 1.1 49 158
r 0.49504 3 1 tcp 1040 ------- 1 3.0 1.1 39 133
+ 0.49504 1 3 ack 40 ------- 1 1.1 3.0 39 166
- 0.49504 1 3 ack 40 ------- 1 1.1 3.0 39 166
+ 0.496 2 3 cbr 1000 ------- 2 2.0 3.1 62 167
- 0.496 2 3 cbr 1000 ------- 2 2.0 3.1 62 167
- 0.49664 3 1 tcp 1040 ------- 1 3.0 1.1 50 160
r 0.49664 1 3 ack 40 ------- 0 1.0 0.0 6 147
+ 0.49664 3 0 ack 40 ------- 0 1.0 0.0 6 147
- 0.49664 3 0 ack 40 ------- 0 1.0 0.0 6 147
r 0.4992 3 1 tcp 1040 ------- 1 3.0 1.1 40 135
+ 0.4992 1 3 ack 40 ------- 1 1.1 3.0 40 168
- 0.4992 1 3 ack 40 ------- 1 1.1 3.0 40 168
r 0.5 2 3 cbr 1000 ------- 2 2.0 3.1 57 146
r 0.50192 1 3 ack 40 ------- 1 1.1 3.0 31 149
+ 0.50192 3 1 tcp 1040 ------- 1 3.0 1.1 51 169
- 0.50192 3 1 tcp 1040 ------- 1 3.0 1.1 51 169
r 0.50336 3 1 tcp 1040 ------- 1 3.0 1.1 41 138
+ 0.50336 1 3 ack 40 ------- 1 1.1 3.0 41 170
- 0.50336 1 3 ack 40 ------- 1 1.1 3.0 41 170
+ 0.504 2 3 cbr 1000 ------- 2 2.0 3.1 63 171
- 0.504 2 3 cbr 1000 ------- 2 2.0 3.1 63 171
r 0.50608 1 3 ack 40 ------- 1 1.1 3.0 32 152
+ 0.50608 3 1 tcp 1040 ------- 1 3.0 1.1 52 172
- 0.50608 3 1 tcp 1040 ------- 1 3.0 1.1 52 172
r 0.50752 3 1 tcp 1040 ------- 1 3.0 1.1 42 140
+ 0.50752 1 3 ack 40 ------- 1 1.1 3.0 42 173
- 0.50752 1 3 ack 40 ------- 1 1.1 3.0 42 173
r 0.508 2 3 cbr 1000 ------- 2 2.0 3.1 58 151
r 0.51024 1 3 ack 40 ------- 1 1.1 3.0 33 154
+ 0.51024 3 1 tcp 1040 ------- 1 3.0 1.1 53 174
- 0.51024 3 1 tcp 1040 ------- 1 3.0 1.1 53 174
r 0.51168 3 1 tcp 1040 ------- 1 3.0 1.1 43 143
+ 0.51168 1 3 ack 40 ------- 1 1.1 3.0 43 175
- 0.51168 1 3 ack 40 ------- 1 1.1 3.0 43 175
+ 0.512 2 3 cbr 1000 ------- 2 2.0 3.1 64 176
- 0.512 2 3 cbr 1000 ------- 2 2.0 3.1 64 176
r 0.5144 1 3 ack 40 ------- 1 1.1 3.0 34 157
+ 0.5144 3 1 tcp 1040 ------- 1 3.0 1.1 54 177
- 0.5144 3 1 tcp 1040 ------- 1 3.0 1.1 54 177
r 0.51584 3 1 tcp 1040 ------- 1 3.0 1.1 44 145
+ 0.51584 1 3 ack 40 ------- 1 1.1 3.0 44 178
- 0.51584 1 3 ack 40 ------- 1 1.1 3.0 44 178
r 0.516 2 3 cbr 1000 ------- 2 2.0 3.1 59 156
r 0.51856 1 3 ack 40 ------- 1 1.1 3.0 35 159
+ 0.51856 3 1 tcp 1040 ------- 1 3.0 1.1 55 179
- 0.51856 3 1 tcp 1040 ------- 1 3.0 1.1 55 179
r 0.52 3 1 tcp 1040 ------- 1 3.0 1.1 45 148
+ 0.52 1 3 ack 40 ------- 1 1.1 3.0 45 180
- 0.52 1 3 ack 40 ------- 1 1.1 3.0 45 180
+ 0.52 2 3 cbr 1000 ------- 2 2.0 3.1 65 181
- 0.52 2 3 cbr 1000 ------- 2 2.0 3.1 65 181
r 0.52272 1 3 ack 40 ------- 1 1.1 3.0 36 162
+ 0.52272 3 1 tcp 1040 ------- 1 3.0 1.1 56 182
- 0.52272 3 1 tcp 1040 ------- 1 3.0 1.1 56 182
r 0.524 2 3 cbr 1000 ------- 2 2.0 3.1 60 161
r 0.52416 3 1 tcp 1040 ------- 1 3.0 1.1 46 150
+ 0.52416 1 3 ack 40 ------- 1 1.1 3.0 46 183
- 0.52416 1 3 ack 40 ------- 1 1.1 3.0 46 183
r 0.52432 3 0 ack 40 ------- 0 1.0 0.0 3 139
+ 0.52432 0 3 tcp 1040 ------- 0 0.0 1.0 7 184
- 0.52432 0 3 tcp 1040 ------- 0 0.0 1.0 7 184
+ 0.52432 0 3 tcp 1040 ------- 0 0.0 1.0 8 185
r 0.52688 1 3 ack 40 ------- 1 1.1 3.0 37 163
+ 0.52688 3 1 tcp 1040 ------- 1 3.0 1.1 57 186
- 0.52688 3 1 tcp 1040 ------- 1 3.0 1.1 57 186
+ 0.528 2 3 cbr 1000 ------- 2 2.0 3.1 66 187
- 0.528 2 3 cbr 1000 ------- 2 2.0 3.1 66 187
r 0.52832 3 1 tcp 1040 ------- 1 3.0 1.1 47 153
+ 0.52832 1 3 ack 40 ------- 1 1.1 3.0 47 188
- 0.52832 1 3 ack 40 ------- 1 1.1 3.0 47 188
r 0.52848 3 0 ack 40 ------- 0 1.0 0.0 4 142
+ 0.52848 0 3 tcp 1040 ------- 0 0.0 1.0 9 189
+ 0.52848 0 3 tcp 1040 ------- 0 0.0 1.0 10 190
- 0.52848 0 3 tcp 1040 ------- 0 0.0 1.0 8 185
r 0.53104 1 3 ack 40 ------- 1 1.1 3.0 38 165
+ 0.53104 3 1 tcp 1040 ------- 1 3.0 1.1 58 191
- 0.53104 3 1 tcp 1040 ------- 1 3.0 1.1 58 191
r 0.532 2 3 cbr 1000 ------- 2 2.0 3.1 61 164
r 0.53248 3 1 tcp 1040 ------- 1 3.0 1.1 48 155
+ 0.53248 1 3 ack 40 ------- 1 1.1 3.0 48 192
- 0.53248 1 3 ack 40 ------- 1 1.1 3.0 48 192
r 0.53264 3 0 ack 40 ------- 0 1.0 0.0 5 144
+ 0.53264 0 3 tcp 1040 ------- 0 0.0 1.0 11 193
+ 0.53264 0 3 tcp 1040 ------- 0 0.0 1.0 12 194
- 0.53264 0 3 tcp 1040 ------- 0 0.0 1.0 9 189
r 0.5352 1 3 ack 40 ------- 1 1.1 3.0 39 166
+ 0.5352 3 1 tcp 1040 ------- 1 3.0 1.1 59 195
- 0.5352 3 1 tcp 1040 ------- 1 3.0 1.1 59 195
+ 0.536 2 3 cbr 1000 ------- 2 2.0 3.1 67 196
- 0.536 2 3 cbr 1000 ------- 2 2.0 3.1 67 196
r 0.53664 3 1 tcp 1040 ------- 1 3.0 1.1 49 158
+ 0.53664 1 3 ack 40 ------- 1 1.1 3.0 49 197
- 0.53664 1 3 ack 40 ------- 1 1.1 3.0 49 197
r 0.5368 3 0 ack 40 ------- 0 1.0 0.0 6 147
+ 0.5368 0 3 tcp 1040 ------- 0 0.0 1.0 13 198
+ 0.5368 0 3 tcp 1040 ------- 0 0.0 1.0 14 199
- 0.5368 0 3 tcp 1040 ------- 0 0.0 1.0 10 190
r 0.53936 1 3 ack 40 ------- 1 1.1 3.0 40 168
+ 0.53936 3 1 tcp 1040 ------- 1 3.0 1.1 60 200
- 0.53936 3 1 tcp 1040 ------- 1 3.0 1.1 60 200
r 0.54 2 3 cbr 1000 ------- 2 2.0 3.1 62 167
r 0.5408 3 1 tcp 1040 ------- 1 3.0 1.1 50 160
+ 0.5408 1 3 ack 40 ------- 1 1.1 3.0 50 201
- 0.5408 1 3 ack 40 ------- 1 1.1 3.0 50 201
- 0.54096 0 3 tcp 1040 ------- 0 0.0 1.0 11 193
r 0.54352 1 3 ack 40 ------- 1 1.1 3.0 41 170
+ 0.54352 3 1 tcp 1040 ------- 1 3.0 1.1 61 202
- 0.54352 3 1 tcp 1040 ------- 1 3.0 1.1 61 202
+ 0.544 2 3 cbr 1000 ------- 2 2.0 3.1 68 203
- 0.544 2 3 cbr 1000 ------- 2 2.0 3.1 68 203
- 0.54512 0 3 tcp 1040 ------- 0 0.0 1.0 12 194
r 0.54608 3 1 tcp 1040 ------- 1 3.0 1.1 51 169
+ 0.54608 1 3 ack 40 ------- 1 1.1 3.0 51 204
- 0.54608 1 3 ack 40 ------- 1 1.1 3.0 51 204
r 0.54768 1 3 ack 40 ------- 1 1.1 3.0 42 173
+ 0.54768 3 1 tcp 1040 ------- 1 3.0 1.1 62 205
- 0.54768 3 1 tcp 1040 ------- 1 3.0 1.1 62 205
r 0.548 2 3 cbr 1000 ------- 2 2.0 3.1 63 171
- 0.54928 0 3 tcp 1040 ------- 0 0.0 1.0 13 198
r 0.55024 3 1 tcp 1040 ------- 1 3.0 1.1 52 172
+ 0.55024 1 3 ack 40 ------- 1 1.1 3.0 52 206
- 0.55024 1 3 ack 40 ------- 1 1.1 3.0 52 206
r 0.55184 1 3 ack 40 ------- 1 1.1 3.0 43 175
+ 0.55184 3 1 tcp 1040 ------- 1 3.0 1.1 63 207
- 0.55184 3 1 tcp 1040 ------- 1 3.0 1.1 63 207
+ 0.552 2 3 cbr 1000 ------- 2 2.0 3.1 69 208
- 0.552 2 3 cbr 1000 ------- 2 2.0 3.1 69 208
- 0.55344 0 3 tcp 1040 ------- 0 0.0 1.0 14 199
r 0.5544 3 1 tcp 1040 ------- 1 3.0 1.1 53 174
+ 0.5544 1 3 ack 40 ------- 1 1.1 3.0 53 209
- 0.5544 1 3 ack 40 ------- 1 1.1 3.0 53 209
r 0.556 1 3 ack 40 ------- 1 1.1 3.0 44 178
+ 0.556 3 1 tcp 1040 ------- 1 3.0 1.1 64 210
r 0.556 2 3 cbr 1000 ------- 2 2.0 3.1 64 176
- 0.556 3 1 tcp 1040 ------- 1 3.0 1.1 64 210
r 0.55856 3 1 tcp 1040 ------- 1 3.0 1.1 54 177
+ 0.55856 1 3 ack 40 ------- 1 1.1 3.0 54 211
- 0.55856 1 3 ack 40 ------- 1 1.1 3.0 54 211
+ 0.56 2 3 cbr 1000 ------- 2 2.0 3.1 70 212
- 0.56 2 3 cbr 1000 ------- 2 2.0 3.1 70 212
r 0.56016 1 3 ack 40 ------- 1 1.1 3.0 45 180
+ 0.56016 3 1 tcp 1040 ------- 1 3.0 1.1 65 213
- 0.56016 3 1 tcp 1040 ------- 1 3.0 1.1 65 213
r 0.56272 3 1 tcp 1040 ------- 1 3.0 1.1 55 179
+ 0.56272 1 3 ack 40 ------- 1 1.1 3.0 55 214
- 0.56272 1 3 ack 40 ------- 1 1.1 3.0 55 214
r 0.564 2 3 cbr 1000 ------- 2 2.0 3.1 65 181
r 0.56432 1 3 ack 40 ------- 1 1.1 3.0 46 183
+ 0.56432 3 1 tcp 1040 ------- 1 3.0 1.1 66 215
- 0.56432 3 1 tcp 1040 ------- 1 3.0 1.1 66 215