n -t 0 -s 0 -S DLABEL -l "A" -L ""
n -t 0 -s 1 -S DLABEL -l "B" -L ""
n -t 0 -s 3 -S DLABEL -l "D" -L ""
n -t 0 -s 2 -S DLABEL -l "C" -L ""
V -t * -v 1.0a5 -a 0
A -t * -n 1 -p 0 -o 0x7fffffff -c 30 -a 1
A -t * -h 1 -m 1073741823 -s 0
c -t * -i 0 -n Red
c -t * -i 1 -n Blue
c -t * -i 2 -n Green
n -t * -a 0 -s 0 -S UP -v box -c Blue -i Blue
n -t * -a 1 -s 1 -S UP -v circle -c Red -i Red
n -t * -a 2 -s 2 -S UP -v box -c Blue -i Blue
n -t * -a 3 -s 3 -S UP -v circle -c Green -i Green
l -t * -s 0 -d 3 -S UP -r 2000000 -D 0.040000000000000001 -c black -o right-down
l -t * -s 2 -d 3 -S UP -r 2000000 -D 0.040000000000000001 -c black -o left-down
l -t * -s 3 -d 1 -S UP -r 2000000 -D 0.040000000000000001 -c black -o up
q -t * -s 1 -d 3 -a 0.5
q -t * -s 3 -d 1 -a 0.5
+ -t 0 -s 2 -d 3 -p cbr -e 1000 -c 2 -i 0 -a 2 -x {2.0 3.1 0 ------- null}
- -t 0 -s 2 -d 3 -p cbr -e 1000 -c 2 -i 0 -a 2 -x {2.0 3.1 0 ------- null}
h -t 0 -s 2 -d 3 -p cbr -e 1000 -c 2 -i 0 -a 2 -x {2.0 3.1 -1 ------- null}
+ -t 0 -s 0 -d 3 -p tcp -e 40 -c 0 -i 1 -a 0 -x {0.0 1.0 0 ------- null}
- -t 0 -s 0 -d 3 -p tcp -e 40 -c 0 -i 1 -a 0 -x {0.0 1.0 0 ------- null}
h -t 0 -s 0 -d 3 -p tcp -e 40 -c 0 -i 1 -a 0 -x {0.0 1.0 -1 ------- null}
+ -t 0 -s 3 -d 1 -p tcp -e 40 -c 1 -i 2 -a 1 -x {3.0 1.1 0 ------- null}
- -t 0 -s 3 -d 1 -p tcp -e 40 -c 1 -i 2 -a 1 -x {3.0 1.1 0 ------- null}
h -t 0 -s 3 -d 1 -p tcp -e 40 -c 1 -i 2 -a 1 -x {3.0 1.1 -1 ------- null}
+ -t 0.008 -s 2 -d 3 -p cbr -e 1000 -c 2 -i 3 -a 2 -x {2.0 3.1 1 ------- null}
- -t 0.008 -s 2 -d 3 -p cbr -e 1000 -c 2 -i 3 -a 2 -x {2.0 3.1 1 ------- null}
h -t 0.008 -s 2 -d 3 -p cbr -e 1000 -c 2 -i 3 -a 2 -x {2.0 3.1 -1 ------- null}
+ -t 0.016 -s 2 -d 3 -p cbr -e 1000 -c 2 -i 4 -a 2 -x {2.0 3.1 2 ------- null}
- -t 0.016 -s 2 -d 3 -p cbr -e 1000 -c 2 -i 4 -a 2 -x {2.0 3.1 2 ------- null}
h -t 0.016 -s 2 -d 3 -p cbr -e 1000 -c 2 -i 4 -a 2 -x {2.0 3.1 -1 ------- null}
+ -t 0.024 -s 2 -d 3 -p cbr -e 1000 -c 2 -i 5 -a 2 -x {2.0 3.1 3 ------- null}
- -t 0.024 -s 2 -d 3 -p cbr -e 1000 -c 2 -i 5 -a 2 -x {2.0 3.1 3 ------- null}
h -t 0.024 -s 2 -d 3 -p cbr -e 1000 -c 2 -i 5 -a 2 -x {2.0 3.1 -1 ------- null}
+ -t 0.032 -s 2 -d 3 -p cbr -e 1000 -c 2 -i 6 -a 2 -x {2.0 3.1 4 ------- null}
- -t 0.032 -s 2 -d 3 -p cbr -e 1000 -c 2 -i 6 -a 2 -x {2.0 3.1 4 ------- null}
h -t 0.032 -s 2 -d 3 -p cbr -e 1000 -c 2 -i 6 -a 2 -x {2.0 3.1 -1 ------- null}
+ -t 0.04 -s 2 -d 3 -p cbr -e 1000 -c 2 -i 7 -a 2 -x {2.0 3.1 5 ------- null}
- -t 0.04 -s 2 -d 3 -p cbr -e 1000 -c 2 -i 7 -a 2 -x {2.0 3.1 5 ------- null}
h -t 0.04 -s 2 -d 3 -p cbr -e 1000 -c 2 -i 7 -a 2 -x {2.0 3.1 -1 ------- null}
r -t 0.04016 -s 0 -d 3 -p tcp -e 40 -c 0 -i 1 -a 0 -x {0.0 1.0 0 ------- null}
+ -t 0.04016 -s 3 -d 1 -p tcp -e 40 -c 0 -i 1 -a 0 -x {0.0 1.0 0 ------- null}
- -t 0.04016 -s 3 -d 1 -p tcp -e 40 -c 0 -i 1 -a 0 -x {0.0 1.0 0 ------- null}
h -t 0.04016 -s 3 -d 1 -p tcp -e 40 -c 0 -i 1 -a 0 -x {0.0 1.0 -1 ------- null}
r -t 0.04016 -s 3 -d 1 -p tcp -e 40 -c 1 -i 2 -a 1 -x {3.0 1.1 0 ------- null}
+ -t 0.04016 -s 1 -d 3 -p ack -e 40 -c 1 -i 8 -a 1 -x {1.1 3.0 0 ------- null}
- -t 0.04016 -s 1 -d 3 -p ack -e 40 -c 1 -i 8 -a 1 -x {1.1 3.0 0 ------- null}
h -t 0.04016 -s 1 -d 3 -p ack -e 40 -c 1 -i 8 -a 1 -x {1.1 3.0 -1 ------- null}
r -t 0.044 -s 2 -d 3 -p cbr -e 1000 -c 2 -i 0 -a 2 -x {2.0 3.1 0 ------- null}
+ -t 0.048 -s 2 -d 3 -p cbr -e 1000 -c 2 -i 9 -a 2 -x {2.0 3.1 6 ------- null}
- -t 0.048 -s 2 -d 3 -p cbr -e 1000 -c 2 -i 9 -a 2 -x {2.0 3.1 6 ------- null}
h -t 0.048 -s 2 -d 3 -p cbr -e 1000 -c 2 -i 9 -a 2 -x {2.0 3.1 -1 ------- null}
r -t 0.052 -s 2 -d 3 -p cbr -e 1000 -c 2 -i 3 -a 2 -x {2.0 3.1 1 ------- null}
+ -t 0.056 -s 2 -d 3 -p cbr -e 1000 -c 2 -i 10 -a 2 -x {2.0 3.1 7 ------- null}
- -t 0.056 -s 2 -d 3 -p cbr -e 1000 -c 2 -i 10 -a 2 -x {2.0 3.1 7 ------- null}
h -t 0.056 -s 2 -d 3 -p cbr -e 1000 -c 2 -i 10 -a 2 -x {2.0 3.1 -1 ------- null}
r -t 0.06 -s 2 -d 3 -p cbr -e 1000 -c 2 -i 4 -a 2 -x {2.0 3.1 2 ------- null}
+ -t 0.064 -s 2 -d 3 -p cbr -e 1000 -c 2 -i 11 -a 2 -x {2.0 3.1 8 ------- null}
- -t 0.064 -s 2 -d 3 -p cbr -e 1000 -c 2 -i 11 -a 2 -x {2.0 3.1 8 ------- null}
h -t 0.064 -s 2 -d 3 -p cbr -e 1000 -c 2 -i 11 -a 2 -x {2.0 3.1 -1 ------- null}
r -t 0.068 -s 2 -d 3 -p cbr -e 1000 -c 2 -i 5 -a 2 -x {2.0 3.1 3 ------- null}
+ -t 0.072 -s 2 -d 3 -p cbr -e 1000 -c 2 -i 12 -a 2 -x {2.0 3.1 9 ------- null}
- -t 0.072 -s 2 -d 3 -p cbr -e 1000 -c 2 -i 12 -a 2 -x {2.0 3.1 9 ------- null}
h -t 0.072 -s 2 -d 3 -p cbr -e 1000 -c 2 -i 12 -a 2 -x {2.0 3.1 -1 ------- null}
r -t 0.076 -s 2 -d 3 -p cbr -e 1000 -c 2 -i 6 -a 2 -x {2.0 3.1 4 ------- null}
+ -t 0.08 -s 2 -d 3 -p cbr -e 1000 -c 2 -i 13 -a 2 -x {2.0 3.1 10 ------- null}
- -t 0.08 -s 2 -d 3 -p cbr -e 1000 -c 2 -i 13 -a 2 -x {2.0 3.1 10 ------- null}
h -t 0.08 -s 2 -d 3 -p cbr -e 1000 -c 2 -i 13 -a 2 -x {2.0 3.1 -1 ------- null}
r -t 0.08032 -s 3 -d 1 -p tcp -e 40 -c 0 -i 1 -a 0 -x {0.0 1.0 0 ------- null}
+ -t 0.08032 -s 1 -d 3 -p ack -e 40 -c 0 -i 14 -a 0 -x {1.0 0.0 0 ------- null}
- -t 0.08032 -s 1 -d 3 -p ack -e 40 -c 0 -i 14 -a 0 -x {1.0 0.0 0 ------- null}
h -t 0.08032 -s 1 -d 3 -p ack -e 40 -c 0 -i 14 -a 0 -x {1.0 0.0 -1 ------- null}
r -t 0.08032 -s 1 -d 3 -p ack -e 40 -c 1 -i 8 -a 1 -x {1.1 3.0 0 ------- null}
+ -t 0.08032 -s 3 -d 1 -p tcp -e 1040 -c 1 -i 15 -a 1 -x {3.0 1.1 1 ------- null}
- -t 0.08032 -s 3 -d 1 -p tcp -e 1040 -c 1 -i 15 -a 1 -x {3.0 1.1 1 ------- null}
h -t 0.08032 -s 3 -d 1 -p tcp -e 1040 -c 1 -i 15 -a 1 -x {3.0 1.1 -1 ------- null}
+ -t 0.08032 -s 3 -d 1 -p tcp -e 1040 -c 1 -i 16 -a 1 -x {3.0 1.1 2 ------- null}
r -t 0.084 -s 2 -d 3 -p cbr -e 1000 -c 2 -i 7 -a 2 -x {2.0 3.1 5 ------- null}
- -t 0.08448 -s 3 -d 1 -p tcp -e 1040 -c 1 -i 16 -a 1 -x {3.0 1.1 2 ------- null}
h -t 0.08448 -s 3 -d 1 -p tcp -e 1040 -c 1 -i 16 -a 1 -x {3.0 1.1 -1 ------- null}
+ -t 0.088 -s 2 -d 3 -p cbr -e 1000 -c 2 -i 17 -a 2 -x {2.0 3.1 11 ------- null}
- -t 0.088 -s 2 -d 3 -p cbr -e 1000 -c 2 -i 17 -a 2 -x {2.0 3.1 11 ------- null}
h -t 0.088 -s 2 -d 3 -p cbr -e 1000 -c 2 -i 17 -a 2 -x {2.0 3.1 -1 ------- null}
r -t 0.092 -s 2 -d 3 -p cbr -e 1000 -c 2 -i 9 -a 2 -x {2.0 3.1 6 ------- null}
+ -t 0.096 -s 2 -d 3 -p cbr -e 1000 -c 2 -i 18 -a 2 -x {2.0 3.1 12 ------- null}
- -t 0.096 -s 2 -d 3 -p cbr -e 1000 -c 2 -i 18 -a 2 -x {2.0 3.1 12 ------- null}
h -t 0.096 -s 2 -d 3 -p cbr -e 1000 -c 2 -i 18 -a 2 -x {2.0 3.1 -1 ------- null}
r -t 0.1 -s 2 -d 3 -p cbr -e 1000 -c 2 -i 10 -a 2 -x {2.0 3.1 7 ------- null}
+ -t 0.104 -s 2 -d 3 -p cbr -e 1000 -c 2 -i 19 -a 2 -x {2.0 3.1 13 ------- null}
- -t 0.104 -s 2 -d 3 -p cbr -e 1000 -c 2 -i 19 -a 2 -x {2.0 3.1 13 ------- null}
h -t 0.104 -s 2 -d 3 -p cbr -e 1000 -c 2 -i 19 -a 2 -x {2.0 3.1 -1 ------- null}
r -t 0.108 -s 2 -d 3 -p cbr -e 1000 -c 2 -i 11 -a 2 -x {2.0 3.1 8 ------- null}
+ -t 0.112 -s 2 -d 3 -p cbr -e 1000 -c 2 -i 20 -a 2 -x {2.0 3.1 14 ------- null}
- -t 0.112 -s 2 -d 3 -p cbr -e 1000 -c 2 -i 20 -a 2 -x {2.0 3.1 14 ------- null}
h -t 0.112 -s 2 -d 3 -p cbr -e 1000 -c 2 -i 20 -a 2 -x {2.0 3.1 -1 ------- null}
r -t 0.116 -s 2 -d 3 -p cbr -e 1000 -c 2 -i 12 -a 2 -x {2.0 3.1 9 ------- null}
+ -t 0.12 -s 2 -d 3 -p cbr -e 1000 -c 2 -i 21 -a 2 -x {2.0 3.1 15 ------- null}
- -t 0.12 -s 2 -d 3 -p cbr -e 1000 -c 2 -i 21 -a 2 -x {2.0 3.1 15 ------- null}
h -t 0.12 -s 2 -d 3 -p cbr -e 1000 -c 2 -i 21 -a 2 -x {2.0 3.1 -1 ------- null}
r -t 0.12048 -s 1 -d 3 -p ack -e 40 -c 0 -i 14 -a 0 -x {1.0 0.0 0 ------- null}
+ -t 0.12048 -s 3 -d 0 -p ack -e 40 -c 0 -i 14 -a 0 -x {1.0 0.0 0 ------- null}
- -t 0.12048 -s 3 -d 0 -p ack -e 40 -c 0 -i 14 -a 0 -x {1.0 0.0 0 ------- null}
h -t 0.12048 -s 3 -d 0 -p ack -e 40 -c 0 -i 14 -a 0 -x {1.0 0.0 -1 ------- null}
r -t 0.124 -s 2 -d 3 -p cbr -e 1000 -c 2 -i 13 -a 2 -x {2.0 3.1 10 ------- null}
r -t 0.12448 -s 3 -d 1 -p tcp -e 1040 -c 1 -i 15 -a 1 -x {3.0 1.1 1 ------- null}
+ -t 0.12448 -s 1 -d 3 -p ack -e 40 -c 1 -i 22 -a 1 -x {1.1 3.0 1 ------- null}
- -t 0.12448 -s 1 -d 3 -p ack -e 40 -c 1 -i 22 -a 1 -x {1.1 3.0 1 ------- null}
h -t 0.12448 -s 1 -d 3 -p ack -e 40 -c 1 -i 22 -a 1 -x {1.1 3.0 -1 ------- null}
+ -t 0.128 -s 2 -d 3 -p cbr -e 1000 -c 2 -i 23 -a 2 -x {2.0 3.1 16 ------- null}
- -t 0.128 -s 2 -d 3 -p cbr -e 1000 -c 2 -i 23 -a 2 -x {2.0 3.1 16 ------- null}
h -t 0.128 -s 2 -d 3 -p cbr -e 1000 -c 2 -i 23 -a 2 -x {2.0 3.1 -1 ------- null}
r -t 0.12864 -s 3 -d 1 -p tcp -e 1040 -c 1 -i 16 -a 1 -x {3.0 1.1 2 ------- null}
+ -t 0.12864 -s 1 -d 3 -p ack -e 40 -c 1 -i 24 -a 1 -x {1.1 3.0 2 ------- null}
- -t 0.12864 -s 1 -d 3 -p ack -e 40 -c 1 -i 24 -a 1 -x {1.1 3.0 2 ------- null}
h -t 0.12864 -s 1 -d 3 -p ack -e 40 -c 1 -i 24 -a 1 -x {1.1 3.0 -1 ------- null}
r -t 0.132 -s 2 -d 3 -p cbr -e 1000 -c 2 -i 17 -a 2 -x {2.0 3.1 11 ------- null}
+ -t 0.136 -s 2 -d 3 -p cbr -e 1000 -c 2 -i 25 -a 2 -x {2.0 3.1 17 ------- null}
- -t 0.136 -s 2 -d 3 -p cbr -e 1000 -c 2 -i 25 -a 2 -x {2.0 3.1 17 ------- null}
h -t 0.136 -s 2 -d 3 -p cbr -e 1000 -c 2 -i 25 -a 2 -x {2.0 3.1 -1 ------- null}
r -t 0.14 -s 2 -d 3 -p cbr -e 1000 -c 2 -i 18 -a 2 -x {2.0 3.1 12 ------- null}
+ -t 0.144 -s 2 -d 3 -p cbr -e 1000 -c 2 -i 26 -a 2 -x {2.0 3.1 18 ------- null}
- -t 0.144 -s 2 -d 3 -p cbr -e 1000 -c 2 -i 26 -a 2 -x {2.0 3.1 18 ------- null}
h -t 0.144 -s 2 -d 3 -p cbr -e 1000 -c 2 -i 26 -a 2 -x {2.0 3.1 -1 ------- null}
r -t 0.148 -s 2 -d 3 -p cbr -e 1000 -c 2 -i 19 -a 2 -x {2.0 3.1 13 ------- null}
+ -t 0.152 -s 2 -d 3 -p cbr -e 1000 -c 2 -i 27 -a 2 -x {2.0 3.1 19 ------- null}
- -t 0.152 -s 2 -d 3 -p cbr -e 1000 -c 2 -i 27 -a 2 -x {2.0 3.1 19 ------- null}
h -t 0.152 -s 2 -d 3 -p cbr -e 1000 -c 2 -i 27 -a 2 -x {2.0 3.1 -1 ------- null}
r -t 0.156 -s 2 -d 3 -p cbr -e 1000 -c 2 -i 20 -a 2 -x {2.0 3.1 14 ------- null}
+ -t 0.16 -s 2 -d 3 -p cbr -e 1000 -c 2 -i 28 -a 2 -x {2.0 3.1 20 ------- null}
- -t 0.16 -s 2 -d 3 -p cbr -e 1000 -c 2 -i 28 -a 2 -x {2.0 3.1 20 ------- null}
h -t 0.16 -s 2 -d 3 -p cbr -e 1000 -c 2 -i 28 -a 2 -x {2.0 3.1 -1 ------- null}
r -t 0.16064 -s 3 -d 0 -p ack -e 40 -c 0 -i 14 -a 0 -x {1.0 0.0 0 ------- null}
+ -t 0.16064 -s 0 -d 3 -p tcp -e 1040 -c 0 -i 29 -a 0 -x {0.0 1.0 1 ------- null}
- -t 0.16064 -s 0 -d 3 -p tcp -e 1040 -c 0 -i 29 -a 0 -x {0.0 1.0 1 ------- null}
h -t 0.16064 -s 0 -d 3 -p tcp -e 1040 -c 0 -i 29 -a 0 -x {0.0 1.0 -1 ------- null}
+ -t 0.16064 -s 0 -d 3 -p tcp -e 1040 -c 0 -i 30 -a 0 -x {0.0 1.0 2 ------- null}
r -t 0.164 -s 2 -d 3 -p cbr -e 1000 -c 2 -i 21 -a 2 -x {2.0 3.1 15 ------- null}
r -t 0.16464 -s 1 -d 3 -p ack -e 40 -c 1 -i 22 -a 1 -x {1.1 3.0 1 ------- null}
+ -t 0.16464 -s 3 -d 1 -p tcp -e 1040 -c 1 -i 31 -a 1 -x {3.0 1.1 3 ------- null}
- -t 0.16464 -s 3 -d 1 -p tcp -e 1040 -c 1 -i 31 -a 1 -x {3.0 1.1 3 ------- null}
h -t 0.16464 -s 3 -d 1 -p tcp -e 1040 -c 1 -i 31 -a 1 -x {3.0 1.1 -1 ------- null}
+ -t 0.16464 -s 3 -d 1 -p tcp -e 1040 -c 1 -i 32 -a 1 -x {3.0 1.1 4 ------- null}
- -t 0.1648 -s 0 -d 3 -p tcp -e 1040 -c 0 -i 30 -a 0 -x {0.0 1.0 2 ------- null}
h -t 0.1648 -s 0 -d 3 -p tcp -e 1040 -c 0 -i 30 -a 0 -x {0.0 1.0 -1 ------- null}
+ -t 0.168 -s 2 -d 3 -p cbr -e 1000 -c 2 -i 33 -a 2 -x {2.0 3.1 21 ------- null}
- -t 0.168 -s 2 -d 3 -p cbr -e 1000 -c 2 -i 33 -a 2 -x {2.0 3.1 21 ------- null}
h -t 0.168 -s 2 -d 3 -p cbr -e 1000 -c 2 -i 33 -a 2 -x {2.0 3.1 -1 ------- null}
r -t 0.1688 -s 1 -d 3 -p ack -e 40 -c 1 -i 24 -a 1 -x {1.1 3.0 2 ------- null}
+ -t 0.1688 -s 3 -d 1 -p tcp -e 1040 -c 1 -i 34 -a 1 -x {3.0 1.1 5 ------- null}
+ -t 0.1688 -s 3 -d 1 -p tcp -e 1040 -c 1 -i 35 -a 1 -x {3.0 1.1 6 ------- null}
- -t 0.1688 -s 3 -d 1 -p tcp -e 1040 -c 1 -i 32 -a 1 -x {3.0 1.1 4 ------- null}
h -t 0.1688 -s 3 -d 1 -p tcp -e 1040 -c 1 -i 32 -a 1 -x {3.0 1.1 -1 ------- null}
r -t 0.172 -s 2 -d 3 -p cbr -e 1000 -c 2 -i 23 -a 2 -x {2.0 3.1 16 ------- null}
- -t 0.17296 -s 3 -d 1 -p tcp -e 1040 -c 1 -i 34 -a 1 -x {3.0 1.1 5 ------- null}
h -t 0.17296 -s 3 -d 1 -p tcp -e 1040 -c 1 -i 34 -a 1 -x {3.0 1.1 -1 ------- null}
+ -t 0.176 -s 2 -d 3 -p cbr -e 1000 -c 2 -i 36 -a 2 -x {2.0 3.1 22 ------- null}
- -t 0.176 -s 2 -d 3 -p cbr -e 1000 -c 2 -i 36 -a 2 -x {2.0 3.1 22 ------- null}
h -t 0.176 -s 2 -d 3 -p cbr -e 1000 -c 2 -i 36 -a 2 -x {2.0 3.1 -1 ------- null}
- -t 0.17712 -s 3 -d 1 -p tcp -e 1040 -c 1 -i 35 -a 1 -x {3.0 1.1 6 ------- null}
h -t 0.17712 -s 3 -d 1 -p tcp -e 1040 -c 1 -i 35 -a 1 -x {3.0 1.1 -1 ------- null}
r -t 0.18 -s 2 -d 3 -p cbr -e 1000 -c 2 -i 25 -a 2 -x {2.0 3.1 17 ------- null}
+ -t 0.184 -s 2 -d 3 -p cbr -e 1000 -c 2 -i 37 -a 2 -x {2.0 3.1 23 ------- null}
- -t 0.184 -s 2 -d 3 -p cbr -e 1000 -c 2 -i 37 -a 2 -x {2.0 3.1 23 ------- null}
h -t 0.184 -s 2 -d 3 -p cbr -e 1000 -c 2 -i 37 -a 2 -x {2.0 3.1 -1 ------- null}
r -t 0.188 -s 2 -d 3 -p cbr -e 1000 -c 2 -i 26 -a 2 -x {2.0 3.1 18 ------- null}
+ -t 0.192 -s 2 -d 3 -p cbr -e 1000 -c 2 -i 38 -a 2 -x {2.0 3.1 24 ------- null}
- -t 0.192 -s 2 -d 3 -p cbr -e 1000 -c 2 -i 38 -a 2 -x {2.0 3.1 24 ------- null}
h -t 0.192 -s 2 -d 3 -p cbr -e 1000 -c 2 -i 38 -a 2 -x {2.0 3.1 -1 ------- null}
r -t 0.196 -s 2 -d 3 -p cbr -e 1000 -c 2 -i 27 -a 2 -x {2.0 3.1 19 ------- null}
+ -t 0.2 -s 2 -d 3 -p cbr -e 1000 -c 2 -i 39 -a 2 -x {2.0 3.1 25 ------- null}
- -t 0.2 -s 2 -d 3 -p cbr -e 1000 -c 2 -i 39 -a 2 -x {2.0 3.1 25 ------- null}
h -t 0.2 -s 2 -d 3 -p cbr -e 1000 -c 2 -i 39 -a 2 -x {2.0 3.1 -1 ------- null}
r -t 0.204 -s 2 -d 3 -p cbr -e 1000 -c 2 -i 28 -a 2 -x {2.0 3.1 20 ------- null}
r -t 0.2048 -s 0 -d 3 -p tcp -e 1040 -c 0 -i 29 -a 0 -x {0.0 1.0 1 ------- null}
+ -t 0.2048 -s 3 -d 1 -p tcp -e 1040 -c 0 -i 29 -a 0 -x {0.0 1.0 1 ------- null}
- -t 0.2048 -s 3 -d 1 -p tcp -e 1040 -c 0 -i 29 -a 0 -x {0.0 1.0 1 ------- null}
h -t 0.2048 -s 3 -d 1 -p tcp -e 1040 -c 0 -i 29 -a 0 -x {0.0 1.0 -1 ------- null}
+ -t 0.208 -s 2 -d 3 -p cbr -e 1000 -c 2 -i 40 -a 2 -x {2.0 3.1 26 ------- null}
- -t 0.208 -s 2 -d 3 -p cbr -e 1000 -c 2 -i 40 -a 2 -x {2.0 3.1 26 ------- null}
h -t 0.208 -s 2 -d 3 -p cbr -e 1000 -c 2 -i 40 -a 2 -x {2.0 3.1 -1 ------- null}
r -t 0.2088 -s 3 -d 1 -p tcp -e 1040 -c 1 -i 31 -a 1 -x {3.0 1.1 3 ------- null}
+ -t 0.2088 -s 1 -d 3 -p ack -e 40 -c 1 -i 41 -a 1 -x {1.1 3.0 3 ------- null}
- -t 0.2088 -s 1 -d 3 -p ack -e 40 -c 1 -i 41 -a 1 -x {1.1 3.0 3 ------- null}
h -t 0.2088 -s 1 -d 3 -p ack -e 40 -c 1 -i 41 -a 1 -x {1.1 3.0 -1 ------- null}
r -t 0.20896 -s 0 -d 3 -p tcp -e 1040 -c 0 -i 30 -a 0 -x {0.0 1.0 2 ------- null}
+ -t 0.20896 -s 3 -d 1 -p tcp -e 1040 -c 0 -i 30 -a 0 -x {0.0 1.0 2 ------- null}
- -t 0.20896 -s 3 -d 1 -p tcp -e 1040 -c 0 -i 30 -a 0 -x {0.0 1.0 2 ------- null}
h -t 0.20896 -s 3 -d 1 -p tcp -e 1040 -c 0 -i 30 -a 0 -x {0.0 1.0 -1 ------- null}
r -t 0.212 -s 2 -d 3 -p cbr -e 1000 -c 2 -i 33 -a 2 -x {2.0 3.1 21 ------- null}
r -t 0.21296 -s 3 -d 1 -p tcp -e 1040 -c 1 -i 32 -a 1 -x {3.0 1.1 4 ------- null}
+ -t 0.21296 -s 1 -d 3 -p ack -e 40 -c 1 -i 42 -a 1 -x {1.1 3.0 4 ------- null}
- -t 0.21296 -s 1 -d 3 -p ack -e 40 -c 1 -i 42 -a 1 -x {1.1 3.0 4 ------- null}
h -t 0.21296 -s 1 -d 3 -p ack -e 40 -c 1 -i 42 -a 1 -x {1.1 3.0 -1 ------- null}
+ -t 0.216 -s 2 -d 3 -p cbr -e 1000 -c 2 -i 43 -a 2 -x {2.0 3.1 27 ------- null}
- -t 0.216 -s 2 -d 3 -p cbr -e 1000 -c 2 -i 43 -a 2 -x {2.0 3.1 27 ------- null}
h -t 0.216 -s 2 -d 3 -p cbr -e 1000 -c 2 -i 43 -a 2 -x {2.0 3.1 -1 ------- null}
r -t 0.21712 -s 3 -d 1 -p tcp -e 1040 -c 1 -i 34 -a 1 -x {3.0 1.1 5 ------- null}
+ -t 0.21712 -s 1 -d 3 -p ack -e 40 -c 1 -i 44 -a 1 -x {1.1 3.0 5 ------- null}
- -t 0.21712 -s 1 -d 3 -p ack -e 40 -c 1 -i 44 -a 1 -x {1.1 3.0 5 ------- null}
h -t 0.21712 -s 1 -d 3 -p ack -e 40 -c 1 -i 44 -a 1 -x {1.1 3.0 -1 ------- null}
r -t 0.22 -s 2 -d 3 -p cbr -e 1000 -c 2 -i 36 -a 2 -x {2.0 3.1 22 ------- null}
r -t 0.22128 -s 3 -d 1 -p tcp -e 1040 -c 1 -i 35 -a 1 -x {3.0 1.1 6 ------- null}
+ -t 0.22128 -s 1 -d 3 -p ack -e 40 -c 1 -i 45 -a 1 -x {1.1 3.0 6 ------- null}
- -t 0.22128 -s 1 -d 3 -p ack -e 40 -c 1 -i 45 -a 1 -x {1.1 3.0 6 ------- null}
h -t 0.22128 -s 1 -d 3 -p ack -e 40 -c 1 -i 45 -a 1 -x {1.1 3.0 -1 ------- null}
+ -t 0.224 -s 2 -d 3 -p cbr -e 1000 -c 2 -i 46 -a 2 -x {2.0 3.1 28 ------- null}
- -t 0.224 -s 2 -d 3 -p cbr -e 1000 -c 2 -i 46 -a 2 -x {2.0 3.1 28 ------- null}
h -t 0.224 -s 2 -d 3 -p cbr -e 1000 -c 2 -i 46 -a 2 -x {2.0 3.1 -1 ------- null}
r -t 0.228 -s 2 -d 3 -p cbr -e 1000 -c 2 -i 37 -a 2 -x {2.0 3.1 23 ------- null}
+ -t 0.232 -s 2 -d 3 -p cbr -e 1000 -c 2 -i 47 -a 2 -x {2.0 3.1 29 ------- null}
- -t 0.232 -s 2 -d 3 -p cbr -e 1000 -c 2 -i 47 -a 2 -x {2.0 3.1 29 ------- null}
h -t 0.232 -s 2 -d 3 -p cbr -e 1000 -c 2 -i 47 -a 2 -x {2.0 3.1 -1 ------- null}
r -t 0.236 -s 2 -d 3 -p cbr -e 1000 -c 2 -i 38 -a 2 -x {2.0 3.1 24 ------- null}
+ -t 0.24 -s 2 -d 3 -p cbr -e 1000 -c 2 -i 48 -a 2 -x {2.0 3.1 30 ------- null}
- -t 0.24 -s 2 -d 3 -p cbr -e 1000 -c 2 -i 48 -a 2 -x {2.0 3.1 30 ------- null}
h -t 0.24 -s 2 -d 3 -p cbr -e 1000 -c 2 -i 48 -a 2 -x {2.0 3.1 -1 ------- null}
r -t 0.244 -s 2 -d 3 -p cbr -e 1000 -c 2 -i 39 -a 2 -x {2.0 3.1 25 ------- null}
+ -t 0.248 -s 2 -d 3 -p cbr -e 1000 -c 2 -i 49 -a 2 -x {2.0 3.1 31 ------- null}
- -t 0.248 -s 2 -d 3 -p cbr -e 1000 -c 2 -i 49 -a 2 -x {2.0 3.1 31 ------- null}
h -t 0.248 -s 2 -d 3 -p cbr -e 1000 -c 2 -i 49 -a 2 -x {2.0 3.1 -1 ------- null}
r -t 0.24896 -s 3 -d 1 -p tcp -e 1040 -c 0 -i 29 -a 0 -x {0.0 1.0 1 ------- null}
+ -t 0.24896 -s 1 -d 3 -p ack -e 40 -c 0 -i 50 -a 0 -x {1.0 0.0 1 ------- null}
- -t 0.24896 -s 1 -d 3 -p ack -e 40 -c 0 -i 50 -a 0 -x {1.0 0.0 1 ------- null}
h -t 0.24896 -s 1 -d 3 -p ack -e 40 -c 0 -i 50 -a 0 -x {1.0 0.0 -1 ------- null}
r -t 0.24896 -s 1 -d 3 -p ack -e 40 -c 1 -i 41 -a 1 -x {1.1 3.0 3 ------- null}
+ -t 0.24896 -s 3 -d 1 -p tcp -e 1040 -c 1 -i 51 -a 1 -x {3.0 1.1 7 ------- null}
- -t 0.24896 -s 3 -d 1 -p tcp -e 1040 -c 1 -i 51 -a 1 -x {3.0 1.1 7 ------- null}
h -t 0.24896 -s 3 -d 1 -p tcp -e 1040 -c 1 -i 51 -a 1 -x {3.0 1.1 -1 ------- null}
+ -t 0.24896 -s 3 -d 1 -p tcp -e 1040 -c 1 -i 52 -a 1 -x {3.0 1.1 8 ------- null}
r -t 0.252 -s 2 -d 3 -p cbr -e 1000 -c 2 -i 40 -a 2 -x {2.0 3.1 26 ------- null}
r -t 0.25312 -s 3 -d 1 -p tcp -e 1040 -c 0 -i 30 -a 0 -x {0.0 1.0 2 ------- null}
+ -t 0.25312 -s 1 -d 3 -p ack -e 40 -c 0 -i 53 -a 0 -x {1.0 0.0 2 ------- null}
- -t 0.25312 -s 1 -d 3 -p ack -e 40 -c 0 -i 53 -a 0 -x {1.0 0.0 2 ------- null}
h -t 0.25312 -s 1 -d 3 -p ack -e 40 -c 0 -i 53 -a 0 -x {1.0 0.0 -1 ------- null}
r -t 0.25312 -s 1 -d 3 -p ack -e 40 -c 1 -i 42 -a 1 -x {1.1 3.0 4 ------- null}
+ -t 0.25312 -s 3 -d 1 -p tcp -e 1040 -c 1 -i 54 -a 1 -x {3.0 1.1 9 ------- null}
+ -t 0.25312 -s 3 -d 1 -p tcp -e 1040 -c 1 -i 55 -a 1 -x {3.0 1.1 10 ------- null}
- -t 0.25312 -s 3 -d 1 -p tcp -e 1040 -c 1 -i 52 -a 1 -x {3.0 1.1 8 ------- null}
h -t 0.25312 -s 3 -d 1 -p tcp -e 1040 -c 1 -i 52 -a 1 -x {3.0 1.1 -1 ------- null}
+ -t 0.256 -s 2 -d 3 -p cbr -e 1000 -c 2 -i 56 -a 2 -x {2.0 3.1 32 ------- null}
- -t 0.256 -s 2 -d 3 -p cbr -e 1000 -c 2 -i 56 -a 2 -x {2.0 3.1 32 ------- null}
h -t 0.256 -s 2 -d 3 -p cbr -e 1000 -c 2 -i 56 -a 2 -x {2.0 3.1 -1 ------- null}
r -t 0.25728 -s 1 -d 3 -p ack -e 40 -c 1 -i 44 -a 1 -x {1.1 3.0 5 ------- null}
+ -t 0.25728 -s 3 -d 1 -p tcp -e 1040 -c 1 -i 57 -a 1 -x {3.0 1.1 11 ------- null}
+ -t 0.25728 -s 3 -d 1 -p tcp -e 1040 -c 1 -i 58 -a 1 -x {3.0 1.1 12 ------- null}
- -t 0.25728 -s 3 -d 1 -p tcp -e 1040 -c 1 -i 54 -a 1 -x {3.0 1.1 9 ------- null}
h -t 0.25728 -s 3 -d 1 -p tcp -e 1040 -c 1 -i 54 -a 1 -x {3.0 1.1 -1 ------- null}
r -t 0.26 -s 2 -d 3 -p cbr -e 1000 -c 2 -i 43 -a 2 -x {2.0 3.1 27 ------- null}
r -t 0.26144 -s 1 -d 3 -p ack -e 40 -c 1 -i 45 -a 1 -x {1.1 3.0 6 ------- null}
+ -t 0.26144 -s 3 -d 1 -p tcp -e 1040 -c 1 -i 59 -a 1 -x {3.0 1.1 13 ------- null}
+ -t 0.26144 -s 3 -d 1 -p tcp -e 1040 -c 1 -i 60 -a 1 -x {3.0 1.1 14 ------- null}
- -t 0.26144 -s 3 -d 1 -p tcp -e 1040 -c 1 -i 55 -a 1 -x {3.0 1.1 10 ------- null}
h -t 0.26144 -s 3 -d 1 -p tcp -e 1040 -c 1 -i 55 -a 1 -x {3.0 1.1 -1 ------- null}
+ -t 0.264 -s 2 -d 3 -p cbr -e 1000 -c 2 -i 61 -a 2 -x {2.0 3.1 33 ------- null}
- -t 0.264 -s 2 -d 3 -p cbr -e 1000 -c 2 -i 61 -a 2 -x {2.0 3.1 33 ------- null}
h -t 0.264 -s 2 -d 3 -p cbr -e 1000 -c 2 -i 61 -a 2 -x {2.0 3.1 -1 ------- null}
- -t 0.2656 -s 3 -d 1 -p tcp -e 1040 -c 1 -i 57 -a 1 -x {3.0 1.1 11 ------- null}
h -t 0.2656 -s 3 -d 1 -p tcp -e 1040 -c 1 -i 57 -a 1 -x {3.0 1.1 -1 ------- null}
r -t 0.268 -s 2 -d 3 -p cbr -e 1000 -c 2 -i 46 -a 2 -x {2.0 3.1 28 ------- null}
- -t 0.26976 -s 3 -d 1 -p tcp -e 1040 -c 1 -i 58 -a 1 -x {3.0 1.1 12 ------- null}
h -t 0.26976 -s 3 -d 1 -p tcp -e 1040 -c 1 -i 58 -a 1 -x {3.0 1.1 -1 ------- null}
+ -t 0.272 -s 2 -d 3 -p cbr -e 1000 -c 2 -i 62 -a 2 -x {2.0 3.1 34 ------- null}
- -t 0.272 -s 2 -d 3 -p cbr -e 1000 -c 2 -i 62 -a 2 -x {2.0 3.1 34 ------- null}
h -t 0.272 -s 2 -d 3 -p cbr -e 1000 -c 2 -i 62 -a 2 -x {2.0 3.1 -1 ------- null}
- -t 0.27392 -s 3 -d 1 -p tcp -e 1040 -c 1 -i 59 -a 1 -x {3.0 1.1 13 ------- null}
h -t 0.27392 -s 3 -d 1 -p tcp -e 1040 -c 1 -i 59 -a 1 -x {3.0 1.1 -1 ------- null}
r -t 0.276 -s 2 -d 3 -p cbr -e 1000 -c 2 -i 47 -a 2 -x {2.0 3.1 29 ------- null}
- -t 0.27808 -s 3 -d 1 -p tcp -e 1040 -c 1 -i 60 -a 1 -x {3.0 1.1 14 ------- null}
h -t 0.27808 -s 3 -d 1 -p tcp -e 1040 -c 1 -i 60 -a 1 -x {3.0 1.1 -1 ------- null}
+ -t 0.28 -s 2 -d 3 -p cbr -e 1000 -c 2 -i 63 -a 2 -x {2.0 3.1 35 ------- null}
- -t 0.28 -s 2 -d 3 -p cbr -e 1000 -c 2 -i 63 -a 2 -x {2.0 3.1 35 ------- null}
h -t 0.28 -s 2 -d 3 -p cbr -e 1000 -c 2 -i 63 -a 2 -x {2.0 3.1 -1 ------- null}
r -t 0.284 -s 2 -d 3 -p cbr -e 1000 -c 2 -i 48 -a 2 -x {2.0 3.1 30 ------- null}
+ -t 0.288 -s 2 -d 3 -p cbr -e 1000 -c 2 -i 64 -a 2 -x {2.0 3.1 36 ------- null}
- -t 0.288 -s 2 -d 3 -p cbr -e 1000 -c 2 -i 64 -a 2 -x {2.0 3.1 36 ------- null}
h -t 0.288 -s 2 -d 3 -p cbr -e 1000 -c 2 -i 64 -a 2 -x {2.0 3.1 -1 ------- null}
r -t 0.28912 -s 1 -d 3 -p ack -e 40 -c 0 -i 50 -a 0 -x {1.0 0.0 1 ------- null}
+ -t 0.28912 -s 3 -d 0 -p ack -e 40 -c 0 -i 50 -a 0 -x {1.0 0.0 1 ------- null}
- -t 0.28912 -s 3 -d 0 -p ack -e 40 -c 0 -i 50 -a 0 -x {1.0 0.0 1 ------- null}
h -t 0.28912 -s 3 -d 0 -p ack -e 40 -c 0 -i 50 -a 0 -x {1.0 0.0 -1 ------- null}
r -t 0.292 -s 2 -d 3 -p cbr -e 1000 -c 2 -i 49 -a 2 -x {2.0 3.1 31 ------- null}
r -t 0.29312 -s 3 -d 1 -p tcp -e 1040 -c 1 -i 51 -a 1 -x {3.0 1.1 7 ------- null}
+ -t 0.29312 -s 1 -d 3 -p ack -e 40 -c 1 -i 65 -a 1 -x {1.1 3.0 7 ------- null}
- -t 0.29312 -s 1 -d 3 -p ack -e 40 -c 1 -i 65 -a 1 -x {1.1 3.0 7 ------- null}
h -t 0.29312 -s 1 -d 3 -p ack -e 40 -c 1 -i 65 -a 1 -x {1.1 3.0 -1 ------- null}
r -t 0.29328 -s 1 -d 3 -p ack -e 40 -c 0 -i 53 -a 0 -x {1.0 0.0 2 ------- null}
+ -t 0.29328 -s 3 -d 0 -p ack -e 40 -c 0 -i 53 -a 0 -x {1.0 0.0 2 ------- null}
- -t 0.29328 -s 3 -d 0 -p ack -e 40 -c 0 -i 53 -a 0 -x {1.0 0.0 2 ------- null}
h -t 0.29328 -s 3 -d 0 -p ack -e 40 -c 0 -i 53 -a 0 -x {1.0 0.0 -1 ------- null}
+ -t 0.296 -s 2 -d 3 -p cbr -e 1000 -c 2 -i 66 -a 2 -x {2.0 3.1 37 ------- null}
- -t 0.296 -s 2 -d 3 -p cbr -e 1000 -c 2 -i 66 -a 2 -x {2.0 3.1 37 ------- null}
h -t 0.296 -s 2 -d 3 -p cbr -e 1000 -c 2 -i 66 -a 2 -x {2.0 3.1 -1 ------- null}
r -t 0.29728 -s 3 -d 1 -p tcp -e 1040 -c 1 -i 52 -a 1 -x {3.0 1.1 8 ------- null}
+ -t 0.29728 -s 1 -d 3 -p ack -e 40 -c 1 -i 67 -a 1 -x {1.1 3.0 8 ------- null}
- -t 0.29728 -s 1 -d 3 -p ack -e 40 -c 1 -i 67 -a 1 -x {1.1 3.0 8 ------- null}
h -t 0.29728 -s 1 -d 3 -p ack -e 40 -c 1 -i 67 -a 1 -x {1.1 3.0 -1 ------- null}
r -t 0.3 -s 2 -d 3 -p cbr -e 1000 -c 2 -i 56 -a 2 -x {2.0 3.1 32 ------- null}
r -t 0.30144 -s 3 -d 1 -p tcp -e 1040 -c 1 -i 54 -a 1 -x {3.0 1.1 9 ------- null}
+ -t 0.30144 -s 1 -d 3 -p ack -e 40 -c 1 -i 68 -a 1 -x {1.1 3.0 9 ------- null}
- -t 0.30144 -s 1 -d 3 -p ack -e 40 -c 1 -i 68 -a 1 -x {1.1 3.0 9 ------- null}
h -t 0.30144 -s 1 -d 3 -p ack -e 40 -c 1 -i 68 -a 1 -x {1.1 3.0 -1 ------- null}
+ -t 0.304 -s 2 -d 3 -p cbr -e 1000 -c 2 -i 69 -a 2 -x {2.0 3.1 38 ------- null}
- -t 0.304 -s 2 -d 3 -p cbr -e 1000 -c 2 -i 69 -a 2 -x {2.0 3.1 38 ------- null}
h -t 0.304 -s 2 -d 3 -p cbr -e 1000 -c 2 -i 69 -a 2 -x {2.0 3.1 -1 ------- null}
r -t 0.3056 -s 3 -d 1 -p tcp -e 1040 -c 1 -i 55 -a 1 -x {3.0 1.1 10 ------- null}
+ -t 0.3056 -s 1 -d 3 -p ack -e 40 -c 1 -i 70 -a 1 -x {1.1 3.0 10 ------- null}
- -t 0.3056 -s 1 -d 3 -p ack -e 40 -c 1 -i 70 -a 1 -x {1.1 3.0 10 ------- null}
h -t 0.3056 -s 1 -d 3 -p ack -e 40 -c 1 -i 70 -a 1 -x {1.1 3.0 -1 ------- null}
r -t 0.308 -s 2 -d 3 -p cbr -e 1000 -c 2 -i 61 -a 2 -x {2.0 3.1 33 ------- null}
r -t 0.30976 -s 3 -d 1 -p tcp -e 1040 -c 1 -i 57 -a 1 -x {3.0 1.1 11 ------- null}
+ -t 0.30976 -s 1 -d 3 -p ack -e 40 -c 1 -i 71 -a 1 -x {1.1 3.0 11 ------- null}
- -t 0.30976 -s 1 -d 3 -p ack -e 40 -c 1 -i 71 -a 1 -x {1.1 3.0 11 ------- null}
h -t 0.30976 -s 1 -d 3 -p ack -e 40 -c 1 -i 71 -a 1 -x {1.1 3.0 -1 ------- null}
+ -t 0.312 -s 2 -d 3 -p cbr -e 1000 -c 2 -i 72 -a 2 -x {2.0 3.1 39 ------- null}
- -t 0.312 -s 2 -d 3 -p cbr -e 1000 -c 2 -i 72 -a 2 -x {2.0 3.1 39 ------- null}
h -t 0.312 -s 2 -d 3 -p cbr -e 1000 -c 2 -i 72 -a 2 -x {2.0 3.1 -1 ------- null}
r -t 0.31392 -s 3 -d 1 -p tcp -e 1040 -c 1 -i 58 -a 1 -x {3.0 1.1 12 ------- null}
+ -t 0.31392 -s 1 -d 3 -p ack -e 40 -c 1 -i 73 -a 1 -x {1.1 3.0 12 ------- null}
- -t 0.31392 -s 1 -d 3 -p ack -e 40 -c 1 -i 73 -a 1 -x {1.1 3.0 12 ------- null}
h -t 0.31392 -s 1 -d 3 -p ack -e 40 -c 1 -i 73 -a 1 -x {1.1 3.0 -1 ------- null}
r -t 0.316 -s 2 -d 3 -p cbr -e 1000 -c 2 -i 62 -a 2 -x {2.0 3.1 34 ------- null}
r -t 0.31808 -s 3 -d 1 -p tcp -e 1040 -c 1 -i 59 -a 1 -x {3.0 1.1 13 ------- null}
+ -t 0.31808 -s 1 -d 3 -p ack -e 40 -c 1 -i 74 -a 1 -x {1.1 3.0 13 ------- null}
- -t 0.31808 -s 1 -d 3 -p ack -e 40 -c 1 -i 74 -a 1 -x {1.1 3.0 13 ------- null}
h -t 0.31808 -s 1 -d 3 -p ack -e 40 -c 1 -i 74 -a 1 -x {1.1 3.0 -1 ------- null}
+ -t 0.32 -s 2 -d 3 -p cbr -e 1000 -c 2 -i 75 -a 2 -x {2.0 3.1 40 ------- null}
- -t 0.32 -s 2 -d 3 -p cbr -e 1000 -c 2 -i 75 -a 2 -x {2.0 3.1 40 ------- null}
h -t 0.32 -s 2 -d 3 -p cbr -e 1000 -c 2 -i 75 -a 2 -x {2.0 3.1 -1 ------- null}
r -t 0.32224 -s 3 -d 1 -p tcp -e 1040 -c 1 -i 60 -a 1 -x {3.0 1.1 14 ------- null}
+ -t 0.32224 -s 1 -d 3 -p ack -e 40 -c 1 -i 76 -a 1 -x {1.1 3.0 14 ------- null}
- -t 0.32224 -s 1 -d 3 -p ack -e 40 -c 1 -i 76 -a 1 -x {1.1 3.0 14 ------- null}
h -t 0.32224 -s 1 -d 3 -p ack -e 40 -c 1 -i 76 -a 1 -x {1.1 3.0 -1 ------- null}
r -t 0.324 -s 2 -d 3 -p cbr -e 1000 -c 2 -i 63 -a 2 -x {2.0 3.1 35 ------- null}
+ -t 0.328 -s 2 -d 3 -p cbr -e 1000 -c 2 -i 77 -a 2 -x {2.0 3.1 41 ------- null}
- -t 0.328 -s 2 -d 3 -p cbr -e 1000 -c 2 -i 77 -a 2 -x {2.0 3.1 41 ------- null}
h -t 0.328 -s 2 -d 3 -p cbr -e 1000 -c 2 -i 77 -a 2 -x {2.0 3.1 -1 ------- null}
r -t 0.32928 -s 3 -d 0 -p ack -e 40 -c 0 -i 50 -a 0 -x {1.0 0.0 1 ------- null}
+ -t 0.32928 -s 0 -d 3 -p tcp -e 1040 -c 0 -i 78 -a 0 -x {0.0 1.0 3 ------- null}
- -t 0.32928 -s 0 -d 3 -p tcp -e 1040 -c 0 -i 78 -a 0 -x {0.0 1.0 3 ------- null}
h -t 0.32928 -s 0 -d 3 -p tcp -e 1040 -c 0 -i 78 -a 0 -x {0.0 1.0 -1 ------- null}
+ -t 0.32928 -s 0 -d 3 -p tcp -e 1040 -c 0 -i 79 -a 0 -x {0.0 1.0 4 ------- null}
r -t 0.332 -s 2 -d 3 -p cbr -e 1000 -c 2 -i 64 -a 2 -x {2.0 3.1 36 ------- null}
r -t 0.33328 -s 1 -d 3 -p ack -e 40 -c 1 -i 65 -a 1 -x {1.1 3.0 7 ------- null}
+ -t 0.33328 -s 3 -d 1 -p tcp -e 1040 -c 1 -i 80 -a 1 -x {3.0 1.1 15 ------- null}
- -t 0.33328 -s 3 -d 1 -p tcp -e 1040 -c 1 -i 80 -a 1 -x {3.0 1.1 15 ------- null}
h -t 0.33328 -s 3 -d 1 -p tcp -e 1040 -c 1 -i 80 -a 1 -x {3.0 1.1 -1 ------- null}
+ -t 0.33328 -s 3 -d 1 -p tcp -e 1040 -c 1 -i 81 -a 1 -x {3.0 1.1 16 ------- null}
r -t 0.33344 -s 3 -d 0 -p ack -e 40 -c 0 -i 53 -a 0 -x {1.0 0.0 2 ------- null}
+ -t 0.33344 -s 0 -d 3 -p tcp -e 1040 -c 0 -i 82 -a 0 -x {0.0 1.0 5 ------- null}
+ -t 0.33344 -s 0 -d 3 -p tcp -e 1040 -c 0 -i 83 -a 0 -x {0.0 1.0 6 ------- null}
- -t 0.33344 -s 0 -d 3 -p tcp -e 1040 -c 0 -i 79 -a 0 -x {0.0 1.0 4 ------- null}
h -t 0.33344 -s 0 -d 3 -p tcp -e 1040 -c 0 -i 79 -a 0 -x {0.0 1.0 -1 ------- null}
+ -t 0.336 -s 2 -d 3 -p cbr -e 1000 -c 2 -i 84 -a 2 -x {2.0 3.1 42 ------- null}
- -t 0.336 -s 2 -d 3 -p cbr -e 1000 -c 2 -i 84 -a 2 -x {2.0 3.1 42 ------- null}
h -t 0.336 -s 2 -d 3 -p cbr -e 1000 -c 2 -i 84 -a 2 -x {2.0 3.1 -1 ------- null}
r -t 0.33744 -s 1 -d 3 -p ack -e 40 -c 1 -i 67 -a 1 -x {1.1 3.0 8 ------- null}
+ -t 0.33744 -s 3 -d 1 -p tcp -e 1040 -c 1 -i 85 -a 1 -x {3.0 1.1 17 ------- null}
+ -t 0.33744 -s 3 -d 1 -p tcp -e 1040 -c 1 -i 86 -a 1 -x {3.0 1.1 18 ------- null}
- -t 0.33744 -s 3 -d 1 -p tcp -e 1040 -c 1 -i 81 -a 1 -x {3.0 1.1 16 ------- null}
h -t 0.33744 -s 3 -d 1 -p tcp -e 1040 -c 1 -i 81 -a 1 -x {3.0 1.1 -1 ------- null}
- -t 0.3376 -s 0 -d 3 -p tcp -e 1040 -c 0 -i 82 -a 0 -x {0.0 1.0 5 ------- null}
h -t 0.3376 -s 0 -d 3 -p tcp -e 1040 -c 0 -i 82 -a 0 -x {0.0 1.0 -1 ------- null}
r -t 0.34 -s 2 -d 3 -p cbr -e 1000 -c 2 -i 66 -a 2 -x {2.0 3.1 37 ------- null}
r -t 0.3416 -s 1 -d 3 -p ack -e 40 -c 1 -i 68 -a 1 -x {1.1 3.0 9 ------- null}
+ -t 0.3416 -s 3 -d 1 -p tcp -e 1040 -c 1 -i 87 -a 1 -x {3.0 1.1 19 ------- null}
+ -t 0.3416 -s 3 -d 1 -p tcp -e 1040 -c 1 -i 88 -a 1 -x {3.0 1.1 20 ------- null}
- -t 0.3416 -s 3 -d 1 -p tcp -e 1040 -c 1 -i 85 -a 1 -x {3.0 1.1 17 ------- null}
h -t 0.3416 -s 3 -d 1 -p tcp -e 1040 -c 1 -i 85 -a 1 -x {3.0 1.1 -1 ------- null}
- -t 0.34176 -s 0 -d 3 -p tcp -e 1040 -c 0 -i 83 -a 0 -x {0.0 1.0 6 ------- null}
h -t 0.34176 -s 0 -d 3 -p tcp -e 1040 -c 0 -i 83 -a 0 -x {0.0 1.0 -1 ------- null}
+ -t 0.344 -s 2 -d 3 -p cbr -e 1000 -c 2 -i 89 -a 2 -x {2.0 3.1 43 ------- null}
- -t 0.344 -s 2 -d 3 -p cbr -e 1000 -c 2 -i 89 -a 2 -x {2.0 3.1 43 ------- null}
h -t 0.344 -s 2 -d 3 -p cbr -e 1000 -c 2 -i 89 -a 2 -x {2.0 3.1 -1 ------- null}
r -t 0.34576 -s 1 -d 3 -p ack -e 40 -c 1 -i 70 -a 1 -x {1.1 3.0 10 ------- null}
+ -t 0.34576 -s 3 -d 1 -p tcp -e 1040 -c 1 -i 90 -a 1 -x {3.0 1.1 21 ------- null}
+ -t 0.34576 -s 3 -d 1 -p tcp -e 1040 -c 1 -i 91 -a 1 -x {3.0 1.1 22 ------- null}
- -t 0.34576 -s 3 -d 1 -p tcp -e 1040 -c 1 -i 86 -a 1 -x {3.0 1.1 18 ------- null}
h -t 0.34576 -s 3 -d 1 -p tcp -e 1040 -c 1 -i 86 -a 1 -x {3.0 1.1 -1 ------- null}